/*--------------------------------*- C++ -*----------------------------------*\
  =========                 |
  \\      /  F ield         | OpenFOAM: The Open Source CFD Toolbox
   \\    /   O peration     | Website:  https://openfoam.org
    \\  /    A nd           | Version:  7
     \\/     M anipulation  |
\*---------------------------------------------------------------------------*/
FoamFile
{
    version     2.0;
    format      ascii;
    class       volScalarField;
    location    "17.5";
    object      T;
}
// * * * * * * * * * * * * * * * * * * * * * * * * * * * * * * * * * * * * * //

dimensions      [0 0 0 1 0 0 0];

internalField   nonuniform List<scalar> 
4032
(
1
1
1
1
1
1
1
1
1
1
1
1.74239
2.6388
2.71898
2.73136
2.74641
2.76032
2.77474
2.78927
2.80192
2.81007
2.81284
2.81311
2.81454
1
1
1
1
1
1
1
1
1
1
1
1.71997
2.62949
2.71742
2.72998
2.74483
2.75853
2.77273
2.78696
2.79917
2.80681
2.80913
2.80895
2.81019
1
1
1
1
1
1
1
1
1
1
1
1.65757
2.60814
2.71164
2.72507
2.74049
2.75443
2.76876
2.78293
2.7948
2.80185
2.8038
2.80333
2.8046
1
1
1
1
1
1
1
1
1
1
1
1.5538
2.56718
2.70011
2.71586
2.73303
2.74778
2.76259
2.77701
2.78868
2.79489
2.79592
2.79462
2.79478
1
1
1
1
1
1
1
1
1
1
1
1.41469
2.50891
2.68879
2.7043
2.72309
2.73836
2.75344
2.76779
2.77871
2.78324
2.78298
2.78047
2.781
1
1
1
1
1
1
1
1
1
1
1
1.2378
2.42637
2.67853
2.69051
2.71041
2.72554
2.74038
2.75466
2.76564
2.77039
2.76989
2.76342
2.75355
1
1
1
1
1
1
1
1
1
1
1
1.03672
2.33182
2.67968
2.6823
2.69557
2.70815
2.72215
2.73626
2.7465
2.74918
2.74335
2.72952
2.71673
1
1
1
1
1
1
1
1
1
1
1
1.00055
2.20953
2.66313
2.66709
2.67749
2.68831
2.70012
2.71249
2.71999
2.72033
2.71492
2.70719
2.71853
1
1
1
1
1
1
1
1
1
1
1
1
2.02918
2.63745
2.6599
2.66696
2.67336
2.68046
2.68653
2.69003
2.68544
2.66897
2.62357
2.53359
1
1
1
1
1
1
1
1
1
1
1
1
1.77779
2.56468
2.64104
2.65353
2.65958
2.66285
2.66225
2.65953
2.6483
2.61699
2.56372
2.41956
1
1
1
1
1
1
1
1
1
1
1
1
1.41561
2.42579
2.61899
2.63544
2.643
2.64312
2.63945
2.63026
2.61309
2.57469
2.51364
2.33838
1
1
1
1
1
1
1
1
1
1
1
1
1.0511
2.281
2.6103
2.60898
2.6156
2.61793
2.61427
2.60295
2.58205
2.54269
2.47444
2.33579
1
1
1
1
1
1
1
1
1
1
1
1
1.00055
2.09398
2.56884
2.58268
2.59098
2.59062
2.58704
2.57603
2.55442
2.51714
2.45051
2.34349
1
1
1
1
1
1
1
1
1
1
1
1
0.999995
1.74278
2.49197
2.56154
2.57103
2.56956
2.56372
2.55187
2.53036
2.49487
2.43536
2.35958
1
1
1
1
1
1
1
1
1
1
1
1
0.999999
1.2584
2.35364
2.55919
2.55137
2.54808
2.54033
2.52819
2.50719
2.47456
2.42937
2.38015
1
1
1
1
1
1
1
1
1
1
1
1
1
1.01686
2.2045
2.5369
2.53385
2.5305
2.52239
2.50858
2.48805
2.46164
2.42985
2.39715
1
1
1
1
1
1
1
1
1
1
1
1
1
1.00002
1.88024
2.48941
2.52557
2.52011
2.51138
2.49751
2.47947
2.45788
2.4324
2.40814
1
1
1
1
1
1
1
1
1
1
1
1
1
0.999998
1.37648
2.37217
2.52827
2.51454
2.5053
2.49166
2.47554
2.45694
2.43515
2.4148
1
1
1
1
1
1
1
1
1
1
1
1
1
0.999999
1.03565
2.22802
2.52476
2.51543
2.50314
2.49298
2.4784
2.46039
2.44019
2.42143
1
1
1
1
1
1
1
1
1
1
1
1
1
1
1.0002
1.95196
2.49828
2.51715
2.50892
2.4983
2.48339
2.46599
2.44655
2.4281
1
1
1
1
1
1
1
1
1
1
1
1
1
1
0.999999
1.49247
2.41837
2.54291
2.52224
2.50657
2.4904
2.47291
2.45393
2.43587
1
1
1
1
1
1
1
1
1
1
1
1
1
1
1
1.06258
2.3074
2.55388
2.52861
2.5149
2.49951
2.48218
2.46372
2.44583
1
1
1
1
1
1
1
1
1
1
1
1
1
1
1
1.00076
2.16393
2.56905
2.55061
2.53382
2.51475
2.49564
2.47679
2.45856
1
1
1
1
1
1
1
1
1
1
1
1
1
1
1
0.999996
1.94559
2.58088
2.57766
2.55643
2.53495
2.51417
2.49459
2.47558
1
1
1
1
1
1
1
1
1
1
1
1
1
1
1
0.999999
1.66924
2.53697
2.59034
2.56794
2.54994
2.53127
2.51303
2.49436
1
1
1
1
1
1
1
1
1
1
1
1
1
1
1
1
1.3555
2.44755
2.61682
2.58719
2.57016
2.5521
2.53408
2.51526
1
1
1
1
1
1
1
1
1
1
1
1
1
1
1
1
1.08488
2.36294
2.63199
2.60089
2.58493
2.56845
2.55138
2.53342
1
1
1
1
1
1
1
1
1
1
1
1
1
1
1
1
1.00193
2.27434
2.6461
2.61887
2.60366
2.58766
2.57083
2.55334
1
1
1
1
1
1
1
1
1
1
1
1
1
1
1
1
1
2.16873
2.65271
2.63901
2.62373
2.60805
2.59163
2.57456
1
1
1
1
1
1
1
1
1
1
1
1
1
1
1
1
1
2.04882
2.64404
2.65189
2.63651
2.62338
2.60835
2.59252
1
1
1
1
1
1
1
1
1
1
1
1
1
1
1
1
1
1.92183
2.6153
2.65347
2.63739
2.62759
2.61517
2.60222
1
1
1
1
1
1
1
1
1
1
1
1
1
1
1
1
1
1.78941
2.58046
2.65445
2.63755
2.62923
2.61832
2.6069
1
1
1
1
1
1
1
1
1
1
1
1
1
1
1
1
1
1.66877
2.55216
2.65404
2.63525
2.62713
2.61663
2.60561
1
1
1
1
1
1
1
1
1
1
1
1
1
1
1
1
1
1.5696
2.53314
2.65744
2.63646
2.62715
2.61615
2.60493
1
1
1
1
1
1
1
1
1
1
1
1
1
1
1
1
1
1.48522
2.51391
2.66353
2.64099
2.63012
2.61809
2.60627
1
1
1
1
1
1
1
1
1
1
1
1
1
1
1
1
1
1.39767
2.49235
2.66904
2.64667
2.63567
2.62316
2.61076
1
1
1
1
1
1
1
1
1
1
1
1
1
1
1
1
1
1.3393
2.47573
2.67368
2.65189
2.64132
2.62903
2.61663
1
1
1
1
1
1
1
1
1
1
1
1
1
1
1
1
1
1.30428
2.46344
2.6764
2.65551
2.64532
2.63332
2.62121
1
1
1
1
1
1
1
1
1
1
1
1
1
1
1
1
1
1.27828
2.45258
2.67779
2.65781
2.64781
2.63601
2.62413
1
1
1
1
1
1
1
1
1
1
1
1
1
1
1
1
1
1.26796
2.44747
2.6773
2.65812
2.64849
2.63686
2.6251
1.8511
2.02726
2.28814
2.42766
2.48917
2.52497
2.54647
2.5594
2.56643
2.57286
2.57974
2.59228
2.60953
2.62657
2.64188
2.65466
2.66609
2.67509
2.6802
2.68149
2.68125
2.68207
2.68559
2.69126
2.69792
2.70419
2.70914
2.71262
2.71479
2.71567
2.71503
2.71204
2.70655
2.69927
2.6919
2.6855
2.68072
2.67715
2.67404
2.67043
2.66557
2.65959
2.65297
2.64562
2.63726
2.6273
2.61534
2.60226
2.58981
2.57929
2.57094
2.56392
2.55669
2.54809
2.53845
2.52882
2.51983
2.5112
2.50178
2.49044
2.47739
2.464
2.45148
2.4408
2.43215
2.42472
2.41701
2.40821
2.39888
2.39013
2.38274
2.37642
2.36912
2.35946
2.34878
2.33798
2.32734
2.31772
2.30928
2.30249
2.29698
2.29138
2.28568
2.28061
2.27697
2.27535
2.27324
2.27006
2.26755
2.26514
2.26534
2.26753
2.27188
2.27673
2.2817
2.29233
2.10793
2.24661
2.35805
2.42802
2.4804
2.50215
2.5216
2.53758
2.55013
2.5646
2.5797
2.59504
2.61158
2.62615
2.63531
2.63907
2.64371
2.64959
2.6565
2.66225
2.66465
2.6652
2.66557
2.66748
2.67155
2.67692
2.6816
2.68404
2.684
2.68217
2.67974
2.67771
2.67554
2.6722
2.66706
2.66016
2.65305
2.64721
2.64291
2.63919
2.63432
2.62673
2.61768
2.60867
2.60079
2.59368
2.58593
2.57627
2.56502
2.55391
2.54423
2.53654
2.53042
2.52411
2.51578
2.50557
2.49489
2.4848
2.47576
2.4669
2.45707
2.44587
2.43429
2.42349
2.41405
2.40611
2.3991
2.39219
2.38475
2.37665
2.36847
2.36047
2.35216
2.34347
2.33466
2.32604
2.3177
2.30993
2.30306
2.29714
2.29187
2.28631
2.2803
2.27481
2.27059
2.268
2.2657
2.26271
2.25978
2.25628
2.25311
2.253
2.25512
2.25937
2.26623
2.27971
2.15696
2.23481
2.22151
2.27634
2.36207
2.42289
2.46471
2.49176
2.51396
2.54164
2.56287
2.56711
2.57167
2.57792
2.58622
2.59235
2.59473
2.59541
2.59817
2.60561
2.61571
2.62237
2.62343
2.62177
2.61917
2.61819
2.61882
2.61937
2.61791
2.61251
2.60424
2.59632
2.59105
2.5882
2.58605
2.58265
2.57641
2.56885
2.56223
2.5572
2.55324
2.54813
2.53918
2.52842
2.51801
2.50925
2.50252
2.49697
2.49025
2.48152
2.47235
2.46406
2.45733
2.45232
2.44789
2.44117
2.43138
2.42044
2.40972
2.40001
2.39136
2.38386
2.37604
2.36732
2.35858
2.35034
2.34271
2.33614
2.3306
2.32512
2.31859
2.31037
2.30134
2.29265
2.28435
2.27638
2.26929
2.26333
2.2584
2.25434
2.25044
2.24649
2.24259
2.23904
2.2362
2.23391
2.23217
2.23156
2.23192
2.23132
2.22983
2.22716
2.22696
2.2283
2.23142
2.24297
2.19344
2.25077
2.20858
2.21345
2.26201
2.31938
2.36159
2.39931
2.42837
2.45352
2.48195
2.48953
2.48633
2.48733
2.4935
2.50609
2.51465
2.51499
2.51237
2.50927
2.5088
2.51109
2.51241
2.50999
2.50302
2.49508
2.48936
2.486
2.48357
2.48009
2.47398
2.4661
2.45908
2.45419
2.45097
2.44852
2.44519
2.43877
2.43163
2.42521
2.41981
2.41567
2.40971
2.40189
2.39375
2.38579
2.37981
2.37562
2.37204
2.36662
2.35968
2.35271
2.34651
2.34151
2.33765
2.33319
2.32718
2.32042
2.3125
2.30376
2.29593
2.28983
2.28416
2.27817
2.27178
2.26519
2.25838
2.25184
2.24585
2.23993
2.23374
2.22718
2.22072
2.21463
2.20814
2.20104
2.19389
2.18727
2.18238
2.17856
2.17499
2.17181
2.16929
2.16745
2.16519
2.16277
2.16046
2.15971
2.16068
2.16229
2.16275
2.16214
2.16311
2.16415
2.16542
2.17272
2.25186
2.27625
2.23233
2.18906
2.19562
2.21303
2.2299
2.25769
2.29009
2.31328
2.34283
2.36404
2.36663
2.36576
2.36727
2.37359
2.38263
2.38368
2.38108
2.37635
2.37157
2.37032
2.37111
2.37068
2.36603
2.35813
2.35101
2.34622
2.34319
2.34084
2.33767
2.33233
2.32607
2.32063
2.31626
2.31327
2.3117
2.30915
2.30354
2.2982
2.2935
2.28917
2.28344
2.27759
2.27138
2.2651
2.26085
2.25762
2.25343
2.24824
2.24261
2.23747
2.23341
2.22974
2.22583
2.22164
2.21678
2.2108
2.20396
2.19733
2.19154
2.18638
2.18154
2.17643
2.17096
2.16616
2.16187
2.15728
2.15213
2.14653
2.1407
2.13503
2.12978
2.12478
2.1197
2.11463
2.10975
2.10465
2.0988
2.09415
2.09156
2.08958
2.08849
2.08804
2.08719
2.08607
2.08422
2.08119
2.07995
2.08022
2.08094
2.08247
2.08505
2.08755
2.08981
2.09484
2.30121
2.30426
2.26113
2.20931
2.18893
2.19112
2.19097
2.19749
2.21131
2.22106
2.23384
2.24832
2.2496
2.24753
2.24528
2.24962
2.25926
2.26363
2.26228
2.25947
2.25716
2.25624
2.25853
2.25997
2.25789
2.25299
2.24823
2.24554
2.24501
2.2454
2.24504
2.24168
2.23604
2.23144
2.22938
2.22965
2.23188
2.2314
2.226
2.21996
2.21501
2.21104
2.20818
2.20493
2.20068
2.19571
2.19
2.18391
2.17732
2.17162
2.1673
2.16431
2.16133
2.15699
2.15143
2.14504
2.13833
2.13164
2.1258
2.12107
2.11656
2.11133
2.10498
2.09825
2.09247
2.08811
2.08443
2.08074
2.07673
2.07218
2.06688
2.06066
2.05397
2.0479
2.04299
2.03909
2.03592
2.0325
2.02746
2.02179
2.01892
2.01721
2.0164
2.0163
2.01635
2.01619
2.01519
2.01299
2.01141
2.01156
2.01271
2.01492
2.01787
2.0212
2.02332
2.0265
2.34333
2.33036
2.2835
2.23823
2.20414
2.19694
2.19724
2.20265
2.20724
2.20359
2.19884
2.19793
2.19327
2.18461
2.17595
2.17765
2.18562
2.1918
2.19173
2.18793
2.18816
2.18876
2.1926
2.19473
2.19357
2.19119
2.18891
2.18799
2.1891
2.19226
2.19291
2.19062
2.18641
2.18363
2.18316
2.18433
2.18549
2.18259
2.17706
2.17221
2.16935
2.16809
2.16654
2.1624
2.15701
2.15039
2.14325
2.13718
2.13282
2.12996
2.12689
2.12255
2.11741
2.11127
2.10441
2.09795
2.09239
2.08764
2.08318
2.07832
2.07256
2.06517
2.05704
2.05043
2.04595
2.04245
2.03899
2.03517
2.03081
2.02527
2.01806
2.00982
2.00231
1.99721
1.9942
1.99201
1.98966
1.98631
1.9808
1.97399
1.96973
1.96725
1.96577
1.9655
1.96573
1.96699
1.96763
1.96729
1.96618
1.96631
1.96662
1.96783
1.96959
1.97248
1.97511
1.97778
2.3718
2.34943
2.30363
2.26552
2.23221
2.21548
2.21294
2.21734
2.2152
2.20686
2.19961
2.19425
2.18547
2.17199
2.15786
2.15174
2.15466
2.15914
2.15931
2.15504
2.15263
2.15306
2.15509
2.15613
2.15511
2.15334
2.15218
2.15143
2.15204
2.15432
2.15448
2.15273
2.14948
2.14766
2.14756
2.14864
2.14827
2.14446
2.13913
2.13567
2.13433
2.13457
2.13226
2.12714
2.12059
2.11346
2.10796
2.10395
2.10144
2.09823
2.09366
2.08798
2.08141
2.07499
2.06969
2.06493
2.06004
2.05504
2.04979
2.04381
2.03692
2.02976
2.02338
2.01817
2.01369
2.00946
2.00519
2.00069
1.99565
1.98974
1.98301
1.9762
1.97056
1.96658
1.96371
1.96117
1.95817
1.95393
1.94852
1.94296
1.93885
1.93599
1.93484
1.93489
1.93657
1.93942
1.9412
1.94082
1.94015
1.9403
1.93968
1.94014
1.94095
1.94276
1.94586
1.94939
2.38836
2.36381
2.32299
2.29097
2.26081
2.23944
2.23442
2.23726
2.23101
2.21608
2.20469
2.19832
2.18997
2.1763
2.15997
2.14921
2.14806
2.15005
2.14881
2.14358
2.13826
2.13725
2.13797
2.13852
2.13703
2.13375
2.13216
2.13125
2.13116
2.13223
2.13236
2.13089
2.12811
2.12647
2.1264
2.12708
2.12618
2.1227
2.11807
2.11497
2.11385
2.11365
2.11014
2.10482
2.0986
2.09322
2.08927
2.0865
2.08323
2.07832
2.0727
2.06658
2.06054
2.0557
2.05143
2.04676
2.04133
2.03551
2.02932
2.02271
2.01609
2.01039
2.00518
2.00011
1.99506
1.98999
1.98491
1.97977
1.9745
1.96907
1.96379
1.95899
1.9547
1.95078
1.94688
1.94232
1.93698
1.93214
1.92882
1.92682
1.92522
1.92346
1.92241
1.92275
1.9241
1.9249
1.92465
1.92506
1.92751
1.92859
1.92814
1.9277
1.92751
1.92773
1.92971
1.93195
2.39659
2.37212
2.33803
2.31223
2.2853
2.26275
2.25749
2.25857
2.24987
2.23121
2.21666
2.20907
2.20056
2.18632
2.16737
2.15327
2.14963
2.14951
2.14661
2.14066
2.13387
2.13099
2.131
2.13128
2.12878
2.12465
2.12177
2.12051
2.12026
2.1209
2.12111
2.11953
2.11696
2.11518
2.11491
2.11514
2.11392
2.11042
2.10619
2.10325
2.10192
2.10089
2.09694
2.09142
2.08617
2.08277
2.08061
2.07819
2.07333
2.06742
2.06015
2.05391
2.04977
2.04634
2.04282
2.03792
2.032
2.02514
2.01755
2.01084
2.00607
2.00181
1.9969
1.99158
1.98609
1.9804
1.97472
1.96905
1.96385
1.95977
1.95597
1.95235
1.94856
1.94452
1.93911
1.93173
1.92551
1.9226
1.92109
1.92081
1.92228
1.92328
1.92288
1.92151
1.92028
1.91868
1.91798
1.92
1.92383
1.92587
1.92579
1.924
1.92057
1.91859
1.9185
1.9193
2.40299
2.37862
2.34997
2.32871
2.30417
2.2818
2.27657
2.27628
2.26674
2.24725
2.23158
2.22337
2.21433
2.19925
2.1786
2.16209
2.15562
2.1531
2.14849
2.1409
2.13264
2.12899
2.12841
2.12818
2.12451
2.11949
2.11569
2.11362
2.11312
2.11383
2.11388
2.11164
2.10867
2.10647
2.10595
2.10613
2.10496
2.10143
2.09714
2.09391
2.09229
2.09095
2.08702
2.0817
2.0777
2.07568
2.07482
2.07152
2.0664
2.0598
2.05197
2.04727
2.0444
2.0419
2.03788
2.03288
2.02651
2.01824
2.011
2.00651
2.00274
1.99869
1.99437
1.98927
1.98292
1.97637
1.97053
1.96541
1.96076
1.95709
1.95421
1.95119
1.94686
1.94123
1.93409
1.92668
1.923
1.92193
1.92152
1.92256
1.92449
1.92544
1.92492
1.92263
1.91957
1.91796
1.91846
1.92054
1.92368
1.9251
1.92399
1.92034
1.91501
1.91181
1.91036
1.91051
2.40908
2.3855
2.36139
2.3433
2.3208
2.29928
2.29293
2.29083
2.2804
2.26115
2.24551
2.237
2.22751
2.21211
2.19084
2.17346
2.16552
2.1606
2.15341
2.14327
2.13341
2.12943
2.12838
2.12657
2.12188
2.11563
2.11037
2.10763
2.10633
2.10644
2.10488
2.10202
2.0986
2.09608
2.09501
2.09501
2.0936
2.09
2.08556
2.08226
2.08091
2.08024
2.07673
2.07162
2.06744
2.06532
2.064
2.06092
2.05663
2.0509
2.04414
2.04027
2.03778
2.03466
2.03029
2.02477
2.01745
2.01079
2.00631
2.00286
1.99903
1.99436
1.98867
1.98217
1.97737
1.97292
1.96861
1.96422
1.9597
1.95482
1.94934
1.94407
1.93949
1.9346
1.92998
1.92662
1.925
1.92413
1.92389
1.9239
1.92392
1.92384
1.92376
1.92219
1.92041
1.92059
1.92118
1.92207
1.92227
1.92194
1.9199
1.9155
1.91111
1.90847
1.90698
1.90642
2.41624
2.39305
2.37166
2.35501
2.33367
2.31337
2.30602
2.30269
2.29173
2.27305
2.25776
2.24897
2.23898
2.22319
2.20189
2.18466
2.17556
2.16852
2.15926
2.1467
2.13536
2.13079
2.12885
2.12531
2.11956
2.1116
2.10451
2.101
2.09899
2.09724
2.09453
2.09104
2.08641
2.08332
2.08157
2.08105
2.07932
2.07584
2.07157
2.06855
2.0676
2.0675
2.06469
2.05998
2.05524
2.05287
2.05155
2.04926
2.04577
2.0406
2.03468
2.03108
2.02825
2.02471
2.0203
2.01445
2.00705
2.00198
1.99895
1.99595
1.9921
1.98741
1.98123
1.97386
1.9688
1.96549
1.96252
1.95956
1.95596
1.95116
1.9447
1.93783
1.9325
1.92918
1.92753
1.92699
1.92694
1.9264
1.92554
1.92442
1.92368
1.92271
1.92112
1.92079
1.9216
1.92307
1.92369
1.92321
1.9213
1.91793
1.91449
1.91228
1.90994
1.90782
1.9065
1.90563
2.42586
2.40328
2.3835
2.3672
2.34602
2.32586
2.31713
2.31213
2.30035
2.28197
2.26729
2.25841
2.24808
2.23206
2.21113
2.19463
2.18458
2.1757
2.16469
2.15015
2.13763
2.1324
2.12926
2.12429
2.11737
2.10754
2.09879
2.09441
2.09129
2.08802
2.08458
2.08011
2.07412
2.07047
2.06863
2.0677
2.0657
2.06201
2.05722
2.05453
2.05435
2.05515
2.05339
2.0495
2.04478
2.04166
2.04
2.03833
2.03535
2.03098
2.02676
2.02378
2.02081
2.01724
2.01285
2.00652
1.99917
1.99492
1.99219
1.98978
1.98668
1.98288
1.97724
1.96984
1.96449
1.96124
1.95868
1.95627
1.95336
1.94937
1.94229
1.93405
1.93001
1.92791
1.92708
1.92836
1.92913
1.92893
1.92799
1.9261
1.92281
1.92073
1.92089
1.92202
1.92487
1.92677
1.92659
1.92432
1.91967
1.91553
1.91347
1.9126
1.91244
1.91111
1.90949
1.9079
2.43832
2.41645
2.39761
2.38111
2.3599
2.34039
2.33032
2.323
2.30899
2.28948
2.27511
2.2663
2.25555
2.23915
2.21832
2.20251
2.19173
2.18141
2.16921
2.15358
2.14006
2.13377
2.12925
2.12343
2.11571
2.10466
2.09487
2.08939
2.08488
2.08077
2.07658
2.07101
2.06403
2.06033
2.05875
2.05774
2.05578
2.05195
2.04683
2.04434
2.04435
2.04517
2.04376
2.04081
2.03659
2.03373
2.03248
2.03132
2.02864
2.02484
2.02099
2.01799
2.01518
2.01197
2.00797
2.00264
1.99646
1.99186
1.98925
1.98668
1.9837
1.98016
1.97545
1.97007
1.965
1.96071
1.95786
1.95537
1.95271
1.94919
1.94329
1.93632
1.93305
1.93145
1.93126
1.93242
1.93331
1.93329
1.93215
1.92922
1.92701
1.92659
1.92663
1.92881
1.93276
1.93349
1.93152
1.92703
1.9217
1.91874
1.91781
1.91887
1.92034
1.91935
1.9174
1.91394
2.45497
2.43363
2.41498
2.39777
2.37627
2.3565
2.34495
2.33554
2.31928
2.2993
2.28487
2.27528
2.26323
2.24573
2.2248
2.20971
2.19847
2.18697
2.17378
2.15781
2.14359
2.13592
2.13012
2.12381
2.11561
2.10402
2.09359
2.08718
2.082
2.07742
2.07268
2.06644
2.0591
2.05517
2.05322
2.05212
2.05082
2.04801
2.04318
2.04049
2.04012
2.04023
2.03897
2.03623
2.0324
2.03049
2.02999
2.0293
2.02718
2.02369
2.01882
2.01544
2.01291
2.01018
2.0069
2.00268
1.99806
1.99402
1.9904
1.98712
1.98388
1.98051
1.97716
1.9738
1.96962
1.96532
1.96138
1.95825
1.95578
1.95312
1.94942
1.9454
1.94322
1.94189
1.94113
1.94101
1.94069
1.94007
1.93952
1.93928
1.93912
1.93927
1.94008
1.94252
1.94411
1.94306
1.93903
1.9334
1.93008
1.92905
1.92915
1.93032
1.93045
1.9281
1.92471
1.91972
2.47421
2.45381
2.43545
2.41724
2.39562
2.37619
2.36325
2.35162
2.33369
2.31354
2.2991
2.28846
2.27471
2.25549
2.23425
2.21976
2.20793
2.1953
2.18147
2.16526
2.15068
2.14144
2.13373
2.12607
2.11705
2.10555
2.09556
2.0892
2.08378
2.0788
2.07353
2.06672
2.059
2.0544
2.0515
2.04981
2.04885
2.04725
2.04368
2.04049
2.03968
2.03942
2.0383
2.03551
2.0315
2.02989
2.02977
2.02961
2.02812
2.02522
2.02014
2.01586
2.0133
2.01108
2.00844
2.00577
2.0033
1.99974
1.99499
1.99078
1.9875
1.98469
1.98242
1.98058
1.97853
1.97546
1.97095
1.96655
1.96347
1.96155
1.96071
1.9602
1.95837
1.95651
1.95501
1.95362
1.95223
1.95242
1.95368
1.95567
1.9572
1.95767
1.95694
1.95535
1.95372
1.95167
1.94855
1.94505
1.94227
1.94013
1.93831
1.93751
1.93679
1.93459
1.93176
1.92677
2.49556
2.4761
2.45796
2.43873
2.41714
2.39822
2.38456
2.3706
2.35118
2.33132
2.31692
2.30508
2.28943
2.26921
2.24885
2.23509
2.22293
2.20916
2.19313
2.17523
2.16171
2.15179
2.14281
2.13379
2.12396
2.11302
2.10263
2.09553
2.08992
2.0846
2.07903
2.07225
2.06386
2.0577
2.0546
2.05266
2.05053
2.04803
2.04466
2.04128
2.04035
2.04023
2.03954
2.0372
2.03291
2.03058
2.03032
2.03036
2.02931
2.02684
2.02223
2.01758
2.01521
2.01369
2.01201
2.0103
2.00826
2.00526
2.00093
1.9967
1.9938
1.99172
1.9905
1.98942
1.98789
1.98571
1.9821
1.97755
1.97483
1.97348
1.97319
1.97402
1.97414
1.97288
1.97134
1.96944
1.96855
1.96909
1.9706
1.97333
1.97509
1.97515
1.9734
1.96976
1.96479
1.96168
1.96025
1.95826
1.95562
1.95269
1.94969
1.94767
1.94608
1.94395
1.9413
1.93709
2.515
2.4969
2.47924
2.45992
2.4394
2.42161
2.40771
2.39189
2.37151
2.35239
2.33827
2.32586
2.30901
2.28818
2.27
2.25686
2.24357
2.22823
2.21028
2.192
2.17975
2.16981
2.16008
2.14993
2.1381
2.12575
2.11687
2.11001
2.10372
2.09734
2.09043
2.08257
2.07389
2.06677
2.06244
2.05914
2.05599
2.05255
2.04756
2.04322
2.04199
2.04169
2.04102
2.03916
2.03521
2.03168
2.03102
2.03082
2.02961
2.02707
2.02306
2.01899
2.01696
2.0156
2.01369
2.01199
2.0102
2.00782
2.00472
2.00175
1.99949
1.99767
1.99628
1.9952
1.99417
1.99301
1.99092
1.98781
1.9861
1.98514
1.98495
1.9859
1.98762
1.98799
1.98696
1.98614
1.98647
1.98672
1.98776
1.99079
1.99278
1.99195
1.98878
1.98259
1.97654
1.97421
1.97305
1.97199
1.96961
1.96672
1.96294
1.95882
1.95593
1.95382
1.9522
1.9494
2.53565
2.51824
2.50072
2.48174
2.46261
2.4461
2.43187
2.41441
2.39398
2.37612
2.36262
2.34924
2.33124
2.31018
2.29292
2.27989
2.2662
2.25001
2.23113
2.21362
2.20097
2.19027
2.18
2.16918
2.15665
2.14341
2.13296
2.12459
2.11657
2.10858
2.10026
2.09109
2.08243
2.07606
2.07127
2.06707
2.063
2.05815
2.05106
2.04546
2.04355
2.04255
2.04152
2.03966
2.03615
2.03172
2.02982
2.02893
2.02749
2.0249
2.02146
2.01887
2.01789
2.01682
2.01452
2.01167
2.00902
2.00676
2.00537
2.00465
2.00356
2.00165
1.99937
1.99763
1.99656
1.99604
1.99551
1.99475
1.99406
1.99387
1.99417
1.99512
1.99713
1.9994
2.00045
2.00141
2.00196
2.00217
2.00279
2.00484
2.00585
2.00403
1.99913
1.99242
1.98862
1.98692
1.98573
1.98427
1.98189
1.97885
1.9744
1.96972
1.96697
1.96535
1.96443
1.96241
2.55719
2.53998
2.52238
2.5039
2.48601
2.4703
2.45508
2.43651
2.4169
2.40035
2.38757
2.37295
2.35353
2.33271
2.31675
2.30398
2.28979
2.27301
2.2535
2.23663
2.22394
2.2123
2.2006
2.18804
2.17408
2.16042
2.14943
2.1402
2.13146
2.12265
2.11298
2.1021
2.09208
2.08475
2.0792
2.07428
2.06921
2.06275
2.05373
2.04703
2.04416
2.04229
2.0407
2.03842
2.03472
2.03001
2.0272
2.02594
2.02435
2.02152
2.01896
2.01795
2.0178
2.01666
2.01441
2.01067
2.0067
2.00551
2.00545
2.00571
2.00525
2.00381
2.00073
1.99772
1.99702
1.99688
1.99757
1.99856
1.99917
1.99965
2.00025
2.00157
2.00403
2.0076
2.01098
2.01297
2.01375
2.01389
2.01356
2.01281
2.01182
2.00961
2.00587
2.0023
2.0003
1.99872
1.99725
1.99546
1.99303
1.98937
1.98495
1.98177
1.97986
1.97855
1.97771
1.97582
2.57616
2.55965
2.54252
2.52494
2.5081
2.4925
2.47595
2.45708
2.43864
2.42316
2.41038
2.39403
2.37357
2.35391
2.33882
2.32602
2.31113
2.29347
2.27361
2.2576
2.24446
2.23166
2.21849
2.20403
2.18832
2.17462
2.16388
2.1542
2.14468
2.13452
2.1229
2.11012
2.0992
2.09132
2.08503
2.07923
2.07299
2.06503
2.05497
2.04812
2.04455
2.04201
2.03941
2.03591
2.03116
2.02685
2.02473
2.02399
2.02248
2.01947
2.01715
2.01668
2.01705
2.01616
2.01414
2.01071
2.0063
2.00508
2.00539
2.00642
2.00598
2.00503
2.00223
1.99915
1.99882
1.9991
2.00109
2.0038
2.00493
2.00555
2.00659
2.00862
2.01137
2.01504
2.01946
2.02188
2.02239
2.02206
2.02004
2.01696
2.01548
2.0149
2.01377
2.01213
2.01039
2.00861
2.00674
2.00448
2.00172
1.99872
1.99601
1.99402
1.99236
1.99085
1.99003
1.98799
2.58838
2.57375
2.55801
2.54169
2.52561
2.5096
2.49223
2.47384
2.45648
2.44168
2.42776
2.40998
2.38975
2.3717
2.35706
2.34371
2.32771
2.30877
2.28941
2.27459
2.26098
2.24702
2.23246
2.21631
2.19954
2.18618
2.17541
2.16514
2.15466
2.14327
2.1303
2.11695
2.10599
2.0974
2.08994
2.0829
2.07536
2.0661
2.05632
2.04995
2.04574
2.04214
2.03803
2.03276
2.02722
2.02416
2.02299
2.02298
2.0216
2.01825
2.01498
2.01414
2.01465
2.01501
2.01382
2.01137
2.0076
2.00569
2.00564
2.00669
2.0067
2.00639
2.00503
2.00291
2.00275
2.00375
2.00639
2.00976
2.01161
2.01268
2.01388
2.01587
2.01848
2.02185
2.02617
2.02858
2.02869
2.02738
2.02471
2.02269
2.02178
2.02122
2.02086
2.0203
2.01914
2.01697
2.0135
2.01031
2.00821
2.00674
2.0057
2.00477
2.00367
2.00214
1.99983
1.99532
2.59426
2.58053
2.56584
2.55072
2.53544
2.51949
2.50239
2.485
2.46876
2.45425
2.43873
2.42029
2.40135
2.38455
2.37097
2.35656
2.3389
2.3186
2.30126
2.28709
2.27304
2.25817
2.24226
2.2249
2.20826
2.1949
2.18332
2.17223
2.16098
2.14876
2.13533
2.12234
2.1117
2.10257
2.09396
2.08556
2.07655
2.06605
2.05732
2.05169
2.04679
2.04198
2.03637
2.02907
2.02371
2.02136
2.02089
2.02099
2.01919
2.01558
2.01122
2.00969
2.00991
2.01139
2.0116
2.01074
2.00825
2.00539
2.005
2.00544
2.00655
2.00712
2.00734
2.00702
2.00727
2.00872
2.01111
2.01493
2.01857
2.02086
2.02253
2.02405
2.02584
2.02836
2.03189
2.03363
2.03335
2.03157
2.02962
2.02861
2.02821
2.02821
2.02815
2.0272
2.02503
2.02164
2.0179
2.01576
2.01448
2.01352
2.01269
2.01177
2.01036
2.00814
2.00463
1.99818
2.59351
2.58055
2.56711
2.55331
2.53895
2.52351
2.50721
2.49112
2.47609
2.46126
2.44408
2.42495
2.40711
2.39301
2.3806
2.36427
2.34504
2.32561
2.3095
2.29522
2.28068
2.26536
2.24869
2.23082
2.2149
2.20164
2.18929
2.17716
2.16486
2.15179
2.13809
2.12589
2.11587
2.10668
2.09741
2.08754
2.07638
2.06517
2.05803
2.05268
2.04754
2.04195
2.03496
2.02558
2.01944
2.017
2.01639
2.01618
2.0141
2.01062
2.00576
2.00364
2.00364
2.00547
2.00696
2.00709
2.00616
2.00358
2.00243
2.00279
2.0045
2.00694
2.00857
2.00976
2.01156
2.01389
2.01679
2.02055
2.02465
2.02827
2.03097
2.0329
2.03437
2.03538
2.0366
2.03728
2.03658
2.03549
2.03482
2.03458
2.03424
2.03355
2.03227
2.03026
2.02726
2.02425
2.02209
2.02051
2.01924
2.01815
2.01699
2.01539
2.01327
2.01013
2.00558
1.99874
2.59292
2.58029
2.56714
2.55355
2.53935
2.52445
2.5093
2.49442
2.47976
2.46428
2.44731
2.43008
2.41417
2.40004
2.38585
2.36836
2.34877
2.33072
2.31549
2.30144
2.2866
2.27062
2.25284
2.23532
2.22074
2.20763
2.19483
2.18196
2.16854
2.15432
2.14067
2.12922
2.11931
2.10981
2.09993
2.08883
2.0766
2.06563
2.05767
2.05137
2.04579
2.04012
2.03276
2.02259
2.01513
2.01185
2.01027
2.00908
2.00688
2.00367
1.99896
1.99639
1.99618
1.99813
2.0002
2.00093
2.00084
1.99952
1.99841
1.99924
2.00161
2.00567
2.00899
2.01154
2.01442
2.01767
2.02112
2.02473
2.02863
2.0322
2.03515
2.03768
2.03969
2.04085
2.04049
2.03956
2.03962
2.03961
2.03929
2.0388
2.03805
2.03653
2.0339
2.03103
2.02886
2.02719
2.02576
2.0244
2.02295
2.02134
2.01933
2.01663
2.01325
2.00973
2.00661
2.00152
2.594
2.58131
2.5682
2.55464
2.54057
2.52613
2.51161
2.49712
2.48236
2.46672
2.45027
2.43409
2.41903
2.40534
2.38928
2.3707
2.35202
2.33585
2.32158
2.30698
2.29106
2.27361
2.25555
2.24019
2.22686
2.21406
2.20118
2.18733
2.17166
2.15612
2.14381
2.13367
2.12401
2.11415
2.1033
2.09051
2.07669
2.06564
2.0578
2.0509
2.04459
2.03826
2.03024
2.01994
2.01211
2.00774
2.00453
2.00173
1.99908
1.99581
1.992
1.98993
1.98961
1.99125
1.99248
1.99349
1.99431
1.99436
1.99473
1.99674
2.00025
2.00467
2.00848
2.01172
2.01529
2.01943
2.02387
2.0278
2.03157
2.03492
2.0378
2.04012
2.04191
2.04298
2.04278
2.04205
2.04195
2.04217
2.04189
2.04128
2.04038
2.03845
2.03516
2.03269
2.03123
2.03008
2.02892
2.02752
2.02575
2.02322
2.01978
2.0161
2.01298
2.01049
2.00861
2.00471
2.59797
2.58493
2.57159
2.55788
2.54382
2.52957
2.51523
2.50069
2.48569
2.47004
2.45413
2.43873
2.42442
2.4096
2.39186
2.37332
2.35623
2.34114
2.32717
2.31168
2.29515
2.27668
2.25939
2.24524
2.232
2.21892
2.20551
2.19085
2.17458
2.15913
2.14652
2.13566
2.12542
2.11515
2.10402
2.09126
2.07788
2.0669
2.05826
2.05057
2.04322
2.03586
2.0275
2.018
2.01051
2.0052
2.00056
1.99661
1.99305
1.98931
1.98669
1.98551
1.98558
1.98639
1.98648
1.98723
1.9892
1.99131
1.99363
1.99679
2.00084
2.00499
2.00867
2.01242
2.01654
2.02099
2.02552
2.03053
2.03442
2.03702
2.03894
2.04069
2.04263
2.0445
2.04487
2.04465
2.04412
2.0438
2.04324
2.04229
2.04111
2.03947
2.03727
2.03509
2.03377
2.03284
2.0318
2.03034
2.02804
2.02441
2.02003
2.0166
2.01433
2.01242
2.01085
2.0073
2.6037
2.59047
2.57692
2.56303
2.54888
2.53454
2.52001
2.50518
2.48994
2.47432
2.45871
2.44374
2.42924
2.4128
2.39474
2.37717
2.36104
2.34692
2.33254
2.31633
2.29884
2.28037
2.2642
2.24997
2.23637
2.22288
2.20884
2.19348
2.17729
2.16237
2.14947
2.13787
2.12691
2.11594
2.10432
2.09183
2.07954
2.06876
2.05943
2.05096
2.04273
2.03421
2.02517
2.01664
2.00996
2.00457
1.9996
1.99452
1.98927
1.98532
1.98372
1.9833
1.98389
1.98423
1.98426
1.98472
1.98683
1.99021
1.99442
1.99892
2.00294
2.00642
2.0101
2.01404
2.01843
2.02343
2.02896
2.03417
2.03723
2.03934
2.04107
2.04292
2.04506
2.04703
2.04731
2.04712
2.04623
2.04511
2.04422
2.04309
2.04179
2.04026
2.03868
2.03718
2.03628
2.03561
2.03458
2.03276
2.02992
2.02576
2.02109
2.01773
2.01588
2.01465
2.01379
2.01103
2.60855
2.59545
2.58192
2.56801
2.5538
2.53932
2.52457
2.50951
2.49413
2.47851
2.46305
2.44795
2.43231
2.41537
2.39804
2.38139
2.36613
2.3517
2.33577
2.31889
2.30111
2.28442
2.26931
2.25473
2.24038
2.22594
2.21077
2.19494
2.17957
2.16559
2.15268
2.14032
2.1282
2.11608
2.10358
2.09137
2.08063
2.07094
2.06165
2.05234
2.04249
2.03198
2.02262
2.0158
2.01049
2.0055
2.00023
1.99394
1.98711
1.9837
1.98223
1.98212
1.98287
1.9832
1.98316
1.98343
1.98561
1.98946
1.99515
2.00118
2.00582
2.00951
2.01279
2.01623
2.02055
2.0259
2.03187
2.03665
2.03926
2.04112
2.04264
2.04442
2.04684
2.04909
2.04929
2.04899
2.04788
2.04636
2.0453
2.04411
2.0429
2.042
2.04111
2.03962
2.03765
2.03579
2.03425
2.03248
2.03004
2.0268
2.02329
2.02052
2.0184
2.01697
2.01571
2.01176
2.61168
2.59874
2.58531
2.57145
2.55723
2.54266
2.52778
2.51259
2.49711
2.48147
2.46584
2.44997
2.43282
2.41575
2.39976
2.3844
2.36969
2.35346
2.33632
2.31912
2.30331
2.28836
2.27354
2.2587
2.24334
2.22724
2.21103
2.19554
2.18124
2.16817
2.15558
2.14276
2.12928
2.11541
2.10225
2.09083
2.08118
2.07232
2.06329
2.05334
2.04185
2.03011
2.0216
2.01586
2.01119
2.00701
2.00201
1.99412
1.98658
1.98364
1.98226
1.9823
1.98238
1.98295
1.9833
1.98341
1.98574
1.99002
1.99638
2.00322
2.0083
2.01245
2.0164
2.02022
2.02414
2.02904
2.03526
2.03883
2.04088
2.04218
2.04331
2.04495
2.04709
2.04947
2.04975
2.04931
2.04826
2.04727
2.04655
2.0457
2.04496
2.04427
2.04303
2.04072
2.0377
2.03516
2.03328
2.0315
2.02939
2.02733
2.02571
2.02401
2.02194
2.01922
2.01621
2.01121
2.61273
2.59991
2.58657
2.57279
2.55858
2.54401
2.5291
2.51391
2.49852
2.48305
2.46731
2.45107
2.43474
2.41861
2.40295
2.38781
2.37102
2.35371
2.33637
2.32005
2.30485
2.29051
2.27585
2.26075
2.24471
2.22732
2.21018
2.19527
2.18233
2.17019
2.15812
2.14516
2.13005
2.11361
2.10001
2.09026
2.08199
2.07393
2.0653
2.05454
2.04014
2.02817
2.02194
2.0169
2.01221
2.00739
2.00163
1.99314
1.98533
1.98232
1.98106
1.98136
1.98209
1.98278
1.98384
1.98404
1.98631
1.99091
1.99771
2.00482
2.01038
2.01498
2.01909
2.02289
2.02657
2.03152
2.03766
2.04086
2.04257
2.04331
2.04398
2.04533
2.04686
2.04917
2.04965
2.04914
2.04815
2.04738
2.04674
2.04591
2.04512
2.04429
2.04288
2.04025
2.03685
2.03404
2.03203
2.03035
2.02902
2.02811
2.02721
2.02586
2.02313
2.01901
2.01552
2.01059
)
;

boundaryField
{
    inlet
    {
        type            fixedValue;
        value           uniform 1;
    }
    outlet
    {
        type            inletOutlet;
        inletValue      uniform 1;
        value           nonuniform List<scalar> 
32
(
2.29237
2.27997
2.24338
2.17262
2.09432
2.02614
1.97773
1.94958
1.93216
1.91958
1.91084
1.90663
1.90581
1.90801
1.9138
1.9196
1.92658
1.93692
1.94942
1.96266
1.97621
1.98834
1.99521
1.99766
1.99836
2.00139
2.0048
2.00757
2.01143
2.01182
2.01121
2.01062
)
;
    }
    bottom
    {
        type            symmetryPlane;
    }
    top
    {
        type            symmetryPlane;
    }
    obstacle
    {
        type            zeroGradient;
    }
    defaultFaces
    {
        type            empty;
    }
}


// ************************************************************************* //
