/*--------------------------------*- C++ -*----------------------------------*\
  =========                 |
  \\      /  F ield         | OpenFOAM: The Open Source CFD Toolbox
   \\    /   O peration     | Website:  https://openfoam.org
    \\  /    A nd           | Version:  7
     \\/     M anipulation  |
\*---------------------------------------------------------------------------*/
FoamFile
{
    version     2.0;
    format      ascii;
    class       volVectorField;
    location    "17.5";
    object      U;
}
// * * * * * * * * * * * * * * * * * * * * * * * * * * * * * * * * * * * * * //

dimensions      [0 1 -1 0 0 0 0];

internalField   nonuniform List<vector> 
4032
(
(3 -1.75332e-16 0)
(3 -4.12827e-17 0)
(3 3.32888e-16 0)
(3 4.53055e-16 0)
(3 9.62674e-16 0)
(3 1.01624e-15 0)
(3 8.33984e-16 0)
(3 5.41366e-16 0)
(3 2.22662e-16 0)
(3 7.72124e-17 0)
(3 -9.12793e-17 0)
(2.05268 0.0120277 0)
(0.80778 0.0149484 0)
(0.690056 0.0241301 0)
(0.636217 0.0256666 0)
(0.577458 0.0261259 0)
(0.520229 0.0264237 0)
(0.462415 0.0269795 0)
(0.403497 0.0279113 0)
(0.342407 0.0294141 0)
(0.277662 0.0318454 0)
(0.20664 0.0355937 0)
(0.128621 0.0383367 0)
(0.0474186 0.042717 0)
(3 -4.25804e-17 0)
(3 3.74844e-16 0)
(3 1.62895e-15 0)
(3 2.40769e-15 0)
(3 3.6665e-15 0)
(3 3.13669e-15 0)
(3 2.55391e-15 0)
(3 1.66945e-15 0)
(3 5.32886e-16 0)
(3 3.84816e-17 0)
(3 -2.38631e-16 0)
(2.08528 0.0598976 0)
(0.799902 0.0689946 0)
(0.670931 0.0718849 0)
(0.616819 0.0722896 0)
(0.559545 0.0738663 0)
(0.50402 0.0761801 0)
(0.447752 0.0793567 0)
(0.390262 0.0833623 0)
(0.330718 0.0889577 0)
(0.267937 0.0970274 0)
(0.199785 0.109186 0)
(0.124196 0.118573 0)
(0.0460153 0.131619 0)
(3 3.51233e-16 0)
(3 1.08139e-15 0)
(3 1.07093e-15 0)
(3 1.11121e-15 0)
(3 1.09767e-15 0)
(3 1.61829e-15 0)
(3 1.01366e-15 0)
(3 1.09181e-15 0)
(3 5.38783e-16 0)
(3 7.14859e-16 0)
(3 5.38945e-16 0)
(2.20041 0.11035 0)
(0.820549 0.12889 0)
(0.675333 0.124691 0)
(0.61926 0.124014 0)
(0.560332 0.125409 0)
(0.503791 0.128445 0)
(0.446772 0.133224 0)
(0.388632 0.139378 0)
(0.328482 0.14814 0)
(0.265144 0.160414 0)
(0.197713 0.17988 0)
(0.122221 0.195669 0)
(0.0457828 0.216551 0)
(3 1.07449e-16 0)
(3 1.92866e-16 0)
(3 -4.6946e-16 0)
(3 -7.30466e-16 0)
(3 -8.81111e-16 0)
(3 -3.75372e-16 0)
(3 -5.37381e-17 0)
(3 6.06168e-16 0)
(3 1.28426e-15 0)
(3 2.19774e-15 0)
(3 2.37649e-15 0)
(2.38671 0.145803 0)
(0.863401 0.187631 0)
(0.695154 0.17594 0)
(0.6391 0.174751 0)
(0.578102 0.177126 0)
(0.51914 0.181803 0)
(0.459242 0.188971 0)
(0.397832 0.198012 0)
(0.334218 0.210801 0)
(0.267432 0.2271 0)
(0.198633 0.253221 0)
(0.122169 0.275677 0)
(0.0450478 0.302454 0)
(3 1.72393e-17 0)
(3 -8.07148e-16 0)
(3 -1.23764e-15 0)
(3 -1.18968e-15 0)
(3 -6.50258e-16 0)
(3 -1.07572e-16 0)
(3 1.09487e-15 0)
(3 2.05214e-15 0)
(3 2.71107e-15 0)
(3 3.80511e-15 0)
(3 3.49684e-15 0)
(2.61715 0.165153 0)
(0.919908 0.246324 0)
(0.720458 0.227327 0)
(0.670213 0.22877 0)
(0.608946 0.232897 0)
(0.548535 0.239532 0)
(0.486274 0.249433 0)
(0.422646 0.261288 0)
(0.358034 0.277825 0)
(0.290297 0.296546 0)
(0.220926 0.327954 0)
(0.139316 0.359291 0)
(0.0541058 0.395092 0)
(3 -5.40447e-17 0)
(3 -6.77295e-16 0)
(3 -2.76523e-16 0)
(3 -4.14663e-16 0)
(3 -4.81023e-16 0)
(3 4.1582e-17 0)
(3 4.93311e-16 0)
(3 1.29924e-15 0)
(3 1.40059e-15 0)
(3 1.96532e-15 0)
(3 1.99599e-15 0)
(2.87517 0.128135 0)
(1.01318 0.296466 0)
(0.768795 0.253508 0)
(0.727325 0.271336 0)
(0.66452 0.284194 0)
(0.60258 0.296361 0)
(0.53827 0.310548 0)
(0.472069 0.325392 0)
(0.404399 0.346553 0)
(0.329791 0.371629 0)
(0.249518 0.414415 0)
(0.158782 0.463539 0)
(0.0539563 0.50872 0)
(3 -4.20636e-16 0)
(3 -2.94558e-16 0)
(3 1.29864e-16 0)
(3 2.43102e-16 0)
(3 -1.17625e-16 0)
(3 -1.77921e-16 0)
(3 -1.16041e-16 0)
(3 -1.1351e-16 0)
(3 5.17064e-17 0)
(3 -3.09331e-17 0)
(3 2.1568e-16 0)
(3.02137 0.0183111 0)
(1.12994 0.315728 0)
(0.798171 0.282661 0)
(0.771412 0.316218 0)
(0.719016 0.334614 0)
(0.66348 0.351067 0)
(0.602856 0.371311 0)
(0.537766 0.390962 0)
(0.470409 0.420919 0)
(0.395589 0.455451 0)
(0.32085 0.50655 0)
(0.232822 0.570193 0)
(0.104647 0.645989 0)
(3 -8.40904e-17 0)
(3 1.38812e-16 0)
(3 1.44257e-16 0)
(3 3.93961e-16 0)
(3 5.97787e-16 0)
(3 5.41009e-16 0)
(3 1.09034e-16 0)
(3 -8.5842e-16 0)
(3 -1.24281e-15 0)
(3 -1.36727e-15 0)
(3 -1.31873e-15 0)
(3.00277 0.000363793 0)
(1.28174 0.332636 0)
(0.796962 0.316746 0)
(0.763773 0.356669 0)
(0.724998 0.382972 0)
(0.687855 0.40415 0)
(0.647987 0.429147 0)
(0.597105 0.455273 0)
(0.544823 0.493127 0)
(0.479928 0.533637 0)
(0.408886 0.605334 0)
(0.290261 0.731683 0)
(0.163553 0.917233 0)
(3 2.59737e-16 0)
(3 3.28456e-16 0)
(3 4.78297e-16 0)
(3 5.28002e-16 0)
(3 5.01018e-16 0)
(3 7.71323e-17 0)
(3 -4.517e-16 0)
(3 -1.24164e-15 0)
(3 -1.51459e-15 0)
(3 -1.90984e-15 0)
(3 -1.6779e-15 0)
(3.00002 -5.12521e-07 0)
(1.55359 0.378438 0)
(0.811803 0.365636 0)
(0.741824 0.383015 0)
(0.714867 0.409054 0)
(0.688549 0.435177 0)
(0.666286 0.469162 0)
(0.637923 0.506368 0)
(0.608871 0.553993 0)
(0.566212 0.611208 0)
(0.523931 0.717607 0)
(0.497029 0.89156 0)
(0.614638 1.20091 0)
(3 5.73506e-17 0)
(3 1.71347e-16 0)
(3 8.33111e-16 0)
(3 6.76897e-16 0)
(3 4.6153e-16 0)
(3 1.42412e-16 0)
(3 -3.26544e-16 0)
(3 1.02841e-16 0)
(3 3.51521e-16 0)
(3 1.71997e-16 0)
(3 1.01896e-15 0)
(3 -3.13015e-07 0)
(1.99652 0.417839 0)
(0.866877 0.451162 0)
(0.754904 0.424899 0)
(0.726914 0.440094 0)
(0.704708 0.462595 0)
(0.689671 0.496221 0)
(0.677473 0.538672 0)
(0.667151 0.594138 0)
(0.660935 0.668914 0)
(0.66013 0.785338 0)
(0.72766 0.927876 0)
(1.00839 1.11361 0)
(3 -1.87323e-16 0)
(3 -2.05984e-16 0)
(3 -1.07658e-16 0)
(3 -2.05625e-17 0)
(3 6.43613e-16 0)
(3 1.44575e-15 0)
(3 1.55639e-15 0)
(3 1.81276e-15 0)
(3 2.2509e-15 0)
(3 2.94193e-15 0)
(3 2.70607e-15 0)
(3 -6.41172e-08 0)
(2.65736 0.325613 0)
(1.00997 0.524644 0)
(0.838969 0.454191 0)
(0.792926 0.463091 0)
(0.756007 0.484756 0)
(0.73245 0.516292 0)
(0.726114 0.558678 0)
(0.726287 0.615144 0)
(0.750274 0.69166 0)
(0.786976 0.799555 0)
(0.911688 0.910913 0)
(1.18048 1.00157 0)
(3 -1.82078e-16 0)
(3 7.54024e-17 0)
(3 -2.59108e-16 0)
(3 -6.76342e-17 0)
(3 2.00017e-16 0)
(3 2.93188e-16 0)
(3 1.03716e-15 0)
(3 2.59896e-15 0)
(3 3.15907e-15 0)
(3 4.413e-15 0)
(3 3.81186e-15 0)
(3 -5.81912e-09 0)
(3.07783 0.0403716 0)
(1.27168 0.504225 0)
(0.916164 0.502002 0)
(0.876112 0.513444 0)
(0.831502 0.524646 0)
(0.795307 0.542777 0)
(0.783393 0.577925 0)
(0.788023 0.626544 0)
(0.824292 0.69064 0)
(0.888709 0.781565 0)
(1.04016 0.877167 0)
(1.28874 0.926539 0)
(3 1.42277e-16 0)
(3 2.92463e-16 0)
(3 6.4209e-16 0)
(3 1.06516e-15 0)
(3 1.03538e-15 0)
(3 6.34535e-16 0)
(3 4.82389e-16 0)
(3 9.56312e-16 0)
(3 1.64692e-15 0)
(3 1.71294e-15 0)
(3 1.83387e-15 0)
(3 -2.07498e-10 0)
(3.00779 7.06279e-05 0)
(1.51247 0.490686 0)
(0.914062 0.559896 0)
(0.876615 0.562292 0)
(0.859428 0.576111 0)
(0.844347 0.582959 0)
(0.839582 0.603205 0)
(0.85134 0.635774 0)
(0.890054 0.678683 0)
(0.960864 0.743624 0)
(1.10556 0.815032 0)
(1.32209 0.841666 0)
(3 -2.93065e-17 0)
(3 -2.01242e-17 0)
(3 3.30892e-17 0)
(3 2.83902e-16 0)
(3 5.24096e-16 0)
(3 6.95425e-16 0)
(3 6.27082e-16 0)
(3 3.07447e-16 0)
(3 -5.79118e-17 0)
(3 -4.34918e-16 0)
(3 -5.64399e-17 0)
(3 -3.05829e-12 0)
(3.00005 -2.00199e-06 0)
(2.10835 0.496121 0)
(0.973081 0.6057 0)
(0.899773 0.571718 0)
(0.900413 0.58412 0)
(0.897461 0.597341 0)
(0.899494 0.615151 0)
(0.915884 0.642499 0)
(0.956195 0.674903 0)
(1.02642 0.714582 0)
(1.14819 0.758596 0)
(1.3223 0.767163 0)
(3 5.05591e-17 0)
(3 1.53395e-16 0)
(3 -4.16654e-16 0)
(3 -5.19778e-16 0)
(3 -4.10847e-16 0)
(3 -3.28285e-17 0)
(3 3.68353e-16 0)
(3 3.68737e-16 0)
(3 1.50543e-16 0)
(3 -1.94266e-16 0)
(3 2.43464e-16 0)
(3 -3.65907e-15 0)
(3.00001 -2.45652e-06 0)
(2.92055 0.213951 0)
(1.17386 0.611531 0)
(0.965058 0.575169 0)
(0.958685 0.592188 0)
(0.953456 0.61053 0)
(0.957559 0.625047 0)
(0.976779 0.641249 0)
(1.01554 0.660564 0)
(1.08038 0.686318 0)
(1.17361 0.70084 0)
(1.29873 0.694598 0)
(3 4.35523e-17 0)
(3 1.0852e-16 0)
(3 1.66062e-16 0)
(3 -2.45947e-17 0)
(3 -4.38341e-18 0)
(3 1.3003e-16 0)
(3 5.98057e-16 0)
(3 5.53437e-16 0)
(3 5.90758e-16 0)
(3 3.6685e-16 0)
(3 5.74595e-17 0)
(3 1.38459e-16 0)
(3 -5.13847e-07 0)
(3.0494 0.00928755 0)
(1.41166 0.570948 0)
(0.988496 0.624517 0)
(0.970209 0.619802 0)
(0.97734 0.627009 0)
(0.994119 0.636013 0)
(1.02219 0.647562 0)
(1.06342 0.657915 0)
(1.12504 0.666296 0)
(1.19609 0.660573 0)
(1.28574 0.6431 0)
(3 -3.22822e-17 0)
(3 -1.12825e-16 0)
(3 -2.71948e-16 0)
(3 -8.41371e-16 0)
(3 -1.07889e-15 0)
(3 -8.37198e-16 0)
(3 -7.28991e-16 0)
(3 -7.63981e-16 0)
(3 -1.00032e-15 0)
(3 -1.05563e-15 0)
(3 -1.06476e-15 0)
(3 -5.91846e-16 0)
(3 -4.50967e-08 0)
(3.00131 -8.40096e-06 0)
(1.89452 0.563578 0)
(1.00006 0.652783 0)
(0.972003 0.62183 0)
(0.990574 0.620077 0)
(1.01465 0.62175 0)
(1.05009 0.629627 0)
(1.09199 0.632662 0)
(1.15012 0.634033 0)
(1.20898 0.62247 0)
(1.27836 0.603257 0)
(3 1.94911e-16 0)
(3 2.79472e-16 0)
(3 4.60888e-17 0)
(3 6.59398e-17 0)
(3 -2.25253e-17 0)
(3 -1.52098e-16 0)
(3 -1.16339e-16 0)
(3 -1.52239e-16 0)
(3 -1.10798e-15 0)
(3 -1.68556e-15 0)
(3 -1.28983e-15 0)
(3 -1.36922e-15 0)
(3 -4.57815e-10 0)
(3.00001 -4.26137e-06 0)
(2.75807 0.324778 0)
(1.14093 0.659707 0)
(1.00052 0.60849 0)
(1.02017 0.607749 0)
(1.04002 0.611341 0)
(1.07218 0.614394 0)
(1.111 0.611333 0)
(1.16352 0.60592 0)
(1.21585 0.590036 0)
(1.27458 0.568928 0)
(3 -7.65803e-17 0)
(3 -1.48943e-16 0)
(3 9.27791e-17 0)
(3 3.71871e-16 0)
(3 2.93359e-16 0)
(3 -2.3023e-16 0)
(3 -2.2947e-16 0)
(3 -1.74596e-16 0)
(3 -1.10667e-15 0)
(3 -1.47719e-15 0)
(3 -8.75389e-16 0)
(3 7.46586e-16 0)
(3 -8.16622e-13 0)
(3 -1.11724e-06 0)
(3.06777 0.0234203 0)
(1.40788 0.607432 0)
(1.02127 0.61802 0)
(1.0307 0.612402 0)
(1.05081 0.602688 0)
(1.08084 0.595105 0)
(1.12043 0.58564 0)
(1.17045 0.576295 0)
(1.22015 0.561085 0)
(1.27405 0.542994 0)
(3 -5.44986e-17 0)
(3 2.12496e-16 0)
(3 3.20388e-16 0)
(3 4.01126e-16 0)
(3 4.49299e-16 0)
(3 4.13508e-17 0)
(3 -1.55586e-15 0)
(3 -1.46859e-15 0)
(3 -7.71831e-16 0)
(3 -9.29894e-16 0)
(3 1.04089e-16 0)
(3 2.47443e-15 0)
(3 2.09468e-15 0)
(3 -1.21248e-07 0)
(3.00336 5.05008e-05 0)
(1.77995 0.568521 0)
(1.00957 0.63755 0)
(1.00093 0.601212 0)
(1.03355 0.576643 0)
(1.06877 0.562513 0)
(1.1096 0.551534 0)
(1.15677 0.541656 0)
(1.20518 0.527488 0)
(1.25877 0.511793 0)
(3 6.31445e-17 0)
(3 4.27508e-16 0)
(3 8.02272e-16 0)
(3 7.50371e-16 0)
(3 6.6841e-16 0)
(3 6.24302e-16 0)
(3 3.59424e-16 0)
(3 1.05786e-15 0)
(3 1.12008e-15 0)
(3 1.32002e-15 0)
(3 1.52459e-15 0)
(3 1.66694e-15 0)
(3 1.46343e-15 0)
(3 -4.83208e-09 0)
(3.00001 -4.10837e-07 0)
(2.56972 0.406672 0)
(1.07626 0.623734 0)
(0.995883 0.559371 0)
(1.04066 0.548712 0)
(1.07703 0.540278 0)
(1.11391 0.528756 0)
(1.15432 0.515308 0)
(1.19763 0.499764 0)
(1.24653 0.483299 0)
(3 2.92336e-17 0)
(3 -1.50111e-16 0)
(3 1.36918e-16 0)
(3 -2.07758e-16 0)
(3 -2.8808e-16 0)
(3 -1.30792e-16 0)
(3 7.4595e-16 0)
(3 1.74723e-15 0)
(3 2.65325e-15 0)
(3 2.46473e-15 0)
(3 1.86274e-15 0)
(3 6.81942e-16 0)
(3 -8.50814e-17 0)
(3 -1.35309e-11 0)
(3 -5.07049e-07 0)
(3.0746 0.0485865 0)
(1.2894 0.551463 0)
(1.01206 0.528751 0)
(1.05162 0.527062 0)
(1.08032 0.517658 0)
(1.11504 0.505255 0)
(1.15379 0.491356 0)
(1.19547 0.476568 0)
(1.24135 0.460209 0)
(3 -1.0417e-17 0)
(3 -3.78256e-16 0)
(3 -7.29511e-16 0)
(3 -3.81234e-16 0)
(3 -2.0213e-16 0)
(3 -2.13851e-16 0)
(3 -2.04423e-16 0)
(3 -1.01529e-16 0)
(3 1.01823e-16 0)
(3 -2.4246e-16 0)
(3 -8.37593e-17 0)
(3 -1.82601e-16 0)
(3 -2.72954e-16 0)
(3 -2.02998e-14 0)
(3 -1.01622e-07 0)
(3.00769 0.000212313 0)
(1.44 0.460556 0)
(0.97565 0.514152 0)
(1.01483 0.505001 0)
(1.05478 0.489551 0)
(1.09822 0.474612 0)
(1.14098 0.461281 0)
(1.18411 0.448043 0)
(1.22933 0.432731 0)
(3 -1.56611e-16 0)
(3 -2.82367e-16 0)
(3 -6.40498e-16 0)
(3 -2.85719e-16 0)
(3 2.52277e-16 0)
(3 -3.21003e-17 0)
(3 3.96961e-17 0)
(3 -1.42154e-16 0)
(3 -8.31823e-16 0)
(3 -9.04935e-16 0)
(3 -1.3121e-15 0)
(3 -1.15731e-15 0)
(3 -7.56168e-16 0)
(3 -4.82356e-16 0)
(3 -7.937e-09 0)
(3.00004 -1.6829e-06 0)
(1.7541 0.411307 0)
(0.924705 0.48181 0)
(0.934797 0.46421 0)
(0.996764 0.458175 0)
(1.05258 0.446969 0)
(1.10335 0.434258 0)
(1.15181 0.420704 0)
(1.19972 0.405075 0)
(3 1.6775e-16 0)
(3 3.54313e-16 0)
(3 5.28385e-16 0)
(3 -1.93675e-16 0)
(3 -2.97692e-16 0)
(3 1.10887e-16 0)
(3 4.85376e-16 0)
(3 9.6081e-16 0)
(3 8.06189e-16 0)
(3 3.89856e-17 0)
(3 -3.25089e-16 0)
(3 -6.76501e-16 0)
(3 -3.91847e-16 0)
(3 -1.0632e-17 0)
(3 -3.56183e-11 0)
(3 -2.01387e-06 0)
(2.23633 0.381791 0)
(0.946769 0.454408 0)
(0.900009 0.408892 0)
(0.95776 0.40668 0)
(1.00779 0.404756 0)
(1.05808 0.398895 0)
(1.10801 0.389631 0)
(1.15751 0.376839 0)
(3 1.80066e-16 0)
(3 2.54629e-16 0)
(3 4.28117e-16 0)
(3 -8.77668e-17 0)
(3 -8.43362e-16 0)
(3 -5.2306e-16 0)
(3 -2.12679e-16 0)
(3 -2.18591e-16 0)
(3 -2.55583e-16 0)
(3 -8.10629e-16 0)
(3 -1.3435e-15 0)
(3 -9.53192e-16 0)
(3 -1.31032e-15 0)
(3 -1.28608e-15 0)
(3 -5.09117e-14 0)
(3 -4.15665e-07 0)
(2.77988 0.226949 0)
(1.04254 0.435094 0)
(0.915563 0.379261 0)
(0.969936 0.374437 0)
(1.0101 0.370339 0)
(1.05239 0.363509 0)
(1.09536 0.354165 0)
(1.13885 0.342605 0)
(3 -3.6324e-16 0)
(3 -3.13197e-16 0)
(3 -1.6389e-16 0)
(3 2.23222e-16 0)
(3 1.4183e-16 0)
(3 2.68857e-16 0)
(3 8.21173e-17 0)
(3 -4.06443e-16 0)
(3 -3.75535e-16 0)
(3 -4.69151e-19 0)
(3 -6.70122e-16 0)
(3 -7.69599e-16 0)
(3 -9.95579e-16 0)
(3 -1.22005e-15 0)
(3 -2.14133e-16 0)
(3 -4.0077e-08 0)
(3.00725 0.0298726 0)
(1.16964 0.359416 0)
(0.920147 0.342073 0)
(0.97401 0.340323 0)
(1.00968 0.339327 0)
(1.04676 0.334181 0)
(1.0846 0.325829 0)
(1.12314 0.315583 0)
(3 1.02392e-16 0)
(3 -5.75067e-16 0)
(3 -4.82231e-16 0)
(3 2.85495e-16 0)
(3 6.70767e-16 0)
(3 -2.10851e-16 0)
(3 -6.5872e-16 0)
(3 -8.47021e-16 0)
(3 -5.6753e-16 0)
(3 1.70166e-16 0)
(3 4.80978e-16 0)
(3 2.527e-17 0)
(3 5.30572e-16 0)
(3 9.13379e-16 0)
(3 1.93448e-15 0)
(3 -1.47056e-09 0)
(3.00361 0.00149009 0)
(1.23013 0.282176 0)
(0.878794 0.313755 0)
(0.934257 0.313844 0)
(0.97655 0.313862 0)
(1.01794 0.308396 0)
(1.05818 0.301071 0)
(1.09749 0.291357 0)
(3 1.51249e-17 0)
(3 -5.92052e-17 0)
(3 -4.94315e-16 0)
(3 -8.48964e-16 0)
(3 -6.02804e-16 0)
(3 -1.06241e-15 0)
(3 -1.5369e-15 0)
(3 -1.5209e-15 0)
(3 -6.7785e-16 0)
(3 4.02304e-16 0)
(3 1.39369e-15 0)
(3 1.62159e-15 0)
(3 1.87983e-15 0)
(3 1.85081e-15 0)
(3 2.62759e-15 0)
(3 -2.72299e-11 0)
(3.00003 1.68989e-06 0)
(1.3402 0.262191 0)
(0.839062 0.278519 0)
(0.877189 0.277414 0)
(0.924723 0.279853 0)
(0.971193 0.277203 0)
(1.01604 0.272044 0)
(1.05868 0.264029 0)
(3 1.68641e-16 0)
(3 2.28319e-16 0)
(3 3.60331e-16 0)
(3 -1.08693e-16 0)
(3 -4.47116e-16 0)
(3 -1.86475e-16 0)
(3 -3.38307e-16 0)
(3 -2.47074e-16 0)
(3 1.7186e-17 0)
(3 2.19156e-16 0)
(3 1.41613e-15 0)
(3 1.7504e-15 0)
(3 1.67323e-15 0)
(3 1.58533e-15 0)
(3 1.43741e-15 0)
(3 -2.06449e-13 0)
(3 -7.83707e-10 0)
(1.50528 0.26502 0)
(0.841965 0.246601 0)
(0.844312 0.242849 0)
(0.885702 0.245994 0)
(0.925603 0.245835 0)
(0.968506 0.242877 0)
(1.01126 0.237674 0)
(3 5.29731e-17 0)
(3 -9.44809e-18 0)
(3 6.44881e-17 0)
(3 3.73678e-16 0)
(3 5.04584e-16 0)
(3 5.83729e-16 0)
(3 6.04931e-16 0)
(3 6.62175e-16 0)
(3 -6.69109e-16 0)
(3 -8.20289e-16 0)
(3 -1.47213e-16 0)
(3 7.25464e-16 0)
(3 9.07168e-16 0)
(3 5.2864e-16 0)
(3 2.56928e-16 0)
(3 -1.33593e-15 0)
(3 -6.95115e-10 0)
(1.71994 0.256674 0)
(0.848621 0.232955 0)
(0.832419 0.219827 0)
(0.869563 0.21746 0)
(0.901176 0.21487 0)
(0.938204 0.21243 0)
(0.976693 0.208959 0)
(3 2.27105e-16 0)
(3 6.06656e-16 0)
(3 5.94245e-16 0)
(3 7.29531e-16 0)
(3 1.07064e-15 0)
(3 1.21338e-15 0)
(3 8.3294e-16 0)
(3 6.37523e-16 0)
(3 4.80521e-16 0)
(3 -2.29775e-16 0)
(3 -4.45767e-16 0)
(3 2.88217e-17 0)
(3 7.62838e-16 0)
(3 6.02017e-16 0)
(3 -6.94054e-17 0)
(3 -7.53289e-16 0)
(3 -1.35785e-10 0)
(1.96413 0.232845 0)
(0.867383 0.218117 0)
(0.835206 0.198884 0)
(0.87456 0.193588 0)
(0.903434 0.188385 0)
(0.936998 0.184367 0)
(0.971313 0.180257 0)
(3 1.31363e-16 0)
(3 2.74526e-16 0)
(3 7.50625e-16 0)
(3 4.65872e-16 0)
(3 1.42713e-16 0)
(3 4.69202e-17 0)
(3 1.43468e-16 0)
(3 4.2053e-16 0)
(3 6.18439e-16 0)
(3 7.97094e-16 0)
(3 8.97015e-16 0)
(3 6.74323e-16 0)
(3 3.12581e-16 0)
(3 -7.56199e-17 0)
(3 -4.36716e-16 0)
(3 -3.49534e-17 0)
(3 -1.17497e-11 0)
(2.19522 0.190158 0)
(0.889412 0.195609 0)
(0.836675 0.17625 0)
(0.87904 0.172397 0)
(0.907744 0.167273 0)
(0.939617 0.162884 0)
(0.971715 0.158378 0)
(3 -4.28873e-16 0)
(3 -6.92288e-16 0)
(3 -7.32433e-16 0)
(3 -5.1964e-16 0)
(3 -3.84737e-16 0)
(3 -9.39483e-16 0)
(3 -8.45663e-16 0)
(3 1.34907e-16 0)
(3 5.34542e-16 0)
(3 6.95819e-16 0)
(3 6.96391e-16 0)
(3 3.95017e-16 0)
(3 -8.58469e-16 0)
(3 -5.14145e-16 0)
(3 -2.45314e-16 0)
(3 -5.67782e-16 0)
(3 -3.33842e-13 0)
(2.3794 0.145963 0)
(0.907833 0.168923 0)
(0.831879 0.151566 0)
(0.876262 0.149577 0)
(0.906619 0.146048 0)
(0.938788 0.141837 0)
(0.970616 0.137346 0)
(3 -8.69199e-18 0)
(3 -1.71618e-16 0)
(3 -3.97376e-16 0)
(3 -5.74034e-16 0)
(3 -3.28644e-16 0)
(3 -2.325e-16 0)
(3 3.14459e-16 0)
(3 1.22483e-15 0)
(3 1.57281e-15 0)
(3 1.44785e-15 0)
(3 5.26616e-16 0)
(3 -3.55538e-16 0)
(3 -9.13533e-16 0)
(3 -3.52456e-16 0)
(3 -8.00838e-16 0)
(3 -1.46447e-15 0)
(3 -5.41109e-15 0)
(2.52333 0.115004 0)
(0.926426 0.139217 0)
(0.8286 0.125993 0)
(0.87339 0.125141 0)
(0.905317 0.123265 0)
(0.938915 0.120305 0)
(0.971522 0.116707 0)
(3 1.5479e-16 0)
(3 2.09882e-16 0)
(3 6.11972e-17 0)
(3 -1.80958e-16 0)
(3 3.53931e-16 0)
(3 1.42823e-15 0)
(3 1.93867e-15 0)
(3 1.13188e-15 0)
(3 1.99332e-16 0)
(3 5.07991e-16 0)
(3 6.9423e-16 0)
(3 -2.42964e-16 0)
(3 -4.7617e-16 0)
(3 -1.11255e-15 0)
(3 -1.04517e-15 0)
(3 -7.36934e-16 0)
(3 -7.00041e-16 0)
(2.65818 0.0793125 0)
(0.957819 0.106593 0)
(0.827522 0.100951 0)
(0.870703 0.099958 0)
(0.901587 0.0989908 0)
(0.934691 0.0972954 0)
(0.967043 0.0947564 0)
(3 8.17377e-17 0)
(3 1.96262e-16 0)
(3 5.88579e-16 0)
(3 1.1679e-15 0)
(3 1.63928e-15 0)
(3 1.59362e-15 0)
(3 1.10692e-15 0)
(3 -2.79628e-16 0)
(3 -1.42579e-15 0)
(3 -1.51099e-15 0)
(3 -5.53505e-16 0)
(3 -5.59495e-16 0)
(3 -4.95979e-16 0)
(3 -6.7981e-16 0)
(3 -7.28612e-16 0)
(3 -1.98662e-16 0)
(3 5.15943e-16 0)
(2.73593 0.044675 0)
(0.971537 0.0728372 0)
(0.817446 0.0770792 0)
(0.859486 0.0767892 0)
(0.88936 0.0767752 0)
(0.921867 0.0758752 0)
(0.953972 0.0743508 0)
(3 1.82173e-17 0)
(3 -1.24872e-16 0)
(3 -6.00584e-17 0)
(3 2.66347e-16 0)
(3 3.10371e-16 0)
(3 -6.54049e-16 0)
(3 -2.00016e-15 0)
(3 -2.63754e-15 0)
(3 -1.93039e-15 0)
(3 -2.23924e-15 0)
(3 -2.13772e-15 0)
(3 -1.28049e-15 0)
(3 -1.42453e-15 0)
(3 -1.04955e-15 0)
(3 -1.38449e-15 0)
(3 -7.48842e-16 0)
(3 3.40697e-16 0)
(2.77511 0.0272935 0)
(0.976741 0.0489599 0)
(0.805946 0.0549555 0)
(0.84636 0.05496 0)
(0.875649 0.055414 0)
(0.907906 0.0551218 0)
(0.940028 0.0543125 0)
(3 -3.30442e-16 0)
(3 -1.97087e-16 0)
(3 -5.23304e-16 0)
(3 -9.99691e-16 0)
(3 -1.56549e-15 0)
(3 -2.06097e-15 0)
(3 -3.15835e-15 0)
(3 -2.57806e-15 0)
(3 -2.16404e-15 0)
(3 -2.01151e-15 0)
(3 -1.7274e-15 0)
(3 -1.42284e-15 0)
(3 -2.09028e-15 0)
(3 -2.55779e-15 0)
(3 -2.39923e-15 0)
(3 -2.51316e-15 0)
(3 -7.76377e-16 0)
(2.80411 0.0140905 0)
(0.986016 0.0274982 0)
(0.805271 0.0318444 0)
(0.84409 0.0318547 0)
(0.872849 0.0321984 0)
(0.904749 0.0320995 0)
(0.936656 0.0317203 0)
(3 -1.40854e-16 0)
(3 3.28459e-16 0)
(3 1.8459e-16 0)
(3 -5.94713e-16 0)
(3 -1.24559e-15 0)
(3 -9.50057e-16 0)
(3 -1.00248e-15 0)
(3 -8.09465e-16 0)
(3 -7.9781e-16 0)
(3 -4.5468e-16 0)
(3 -2.37867e-16 0)
(3 -6.43633e-16 0)
(3 -1.62199e-15 0)
(3 -2.69507e-15 0)
(3 -3.51743e-15 0)
(3 -2.95324e-15 0)
(3 -1.39589e-15 0)
(2.81296 0.00246153 0)
(0.98619 0.00595872 0)
(0.799544 0.00999393 0)
(0.836662 0.0106483 0)
(0.864692 0.0114217 0)
(0.89645 0.0116673 0)
(0.928461 0.0116786 0)
(1.30304 1.37914 0)
(0.410602 0.713034 0)
(0.0547901 0.140523 0)
(0.0333735 -0.00664929 0)
(0.0174201 -0.00743797 0)
(0.00627691 0.00901624 0)
(-0.00552693 0.0188549 0)
(-0.0173497 0.0151201 0)
(-0.0196755 0.0097804 0)
(-0.0249331 0.00858305 0)
(-0.0339081 0.0078366 0)
(-0.0423277 0.00249002 0)
(-0.0508369 -0.00503567 0)
(-0.0536916 -0.0120418 0)
(-0.049335 -0.0172516 0)
(-0.0364772 -0.0214129 0)
(-0.0172532 -0.0253279 0)
(0.00460908 -0.0291272 0)
(0.0263534 -0.0314023 0)
(0.046689 -0.0316515 0)
(0.0685506 -0.0319256 0)
(0.0947923 -0.0309299 0)
(0.126006 -0.0303313 0)
(0.161965 -0.0310629 0)
(0.201088 -0.0328335 0)
(0.241858 -0.034985 0)
(0.282725 -0.0369193 0)
(0.323213 -0.0385319 0)
(0.363504 -0.0400928 0)
(0.403491 -0.0418511 0)
(0.443412 -0.0434124 0)
(0.482701 -0.0438108 0)
(0.520309 -0.0428624 0)
(0.556922 -0.04091 0)
(0.592767 -0.0383041 0)
(0.629024 -0.0357205 0)
(0.666023 -0.0337344 0)
(0.703694 -0.032349 0)
(0.741033 -0.0312797 0)
(0.77687 -0.0303777 0)
(0.810674 -0.0295253 0)
(0.842369 -0.0289622 0)
(0.872687 -0.0289616 0)
(0.902405 -0.0291332 0)
(0.931462 -0.0289259 0)
(0.959246 -0.0280332 0)
(0.984397 -0.0262825 0)
(1.00707 -0.0238529 0)
(1.02925 -0.0214181 0)
(1.05287 -0.0196042 0)
(1.07853 -0.0186027 0)
(1.10526 -0.0180197 0)
(1.13116 -0.0172339 0)
(1.15455 -0.0158828 0)
(1.17557 -0.0145478 0)
(1.19578 -0.0139512 0)
(1.2163 -0.0142674 0)
(1.23706 -0.0150652 0)
(1.25672 -0.0156652 0)
(1.27419 -0.0156655 0)
(1.2893 -0.0149676 0)
(1.3035 -0.0138384 0)
(1.31825 -0.0126703 0)
(1.33478 -0.0117418 0)
(1.35369 -0.011057 0)
(1.37381 -0.0106814 0)
(1.39329 -0.0106602 0)
(1.41115 -0.010509 0)
(1.42763 -0.00979949 0)
(1.44373 -0.00887714 0)
(1.46061 -0.00826259 0)
(1.47842 -0.00835948 0)
(1.49503 -0.00910222 0)
(1.50868 -0.00974264 0)
(1.52117 -0.00988873 0)
(1.53364 -0.00942121 0)
(1.54558 -0.00796477 0)
(1.55755 -0.00643522 0)
(1.56986 -0.00508367 0)
(1.58342 -0.00384435 0)
(1.5978 -0.00264257 0)
(1.61075 -0.00138036 0)
(1.62196 -0.000447787 0)
(1.63275 0.000110413 0)
(1.64435 0.000572494 0)
(1.65717 0.000672012 0)
(1.66706 0.000813086 0)
(1.67232 0.0012707 0)
(1.67536 0.00165682 0)
(1.67605 0.00170713 0)
(1.67567 0.00122683 0)
(1.67473 -0.000194891 0)
(1.67279 -0.00258087 0)
(1.66999 -0.00508451 0)
(1.66531 -0.00648608 0)
(1.6537 -0.00651847 0)
(1.75018 1.20193 0)
(1.28775 0.72262 0)
(0.910201 0.208526 0)
(0.586264 0.00573227 0)
(0.346136 0.00538106 0)
(0.215579 0.0452503 0)
(0.150925 0.0525395 0)
(0.116294 0.0412335 0)
(0.093964 0.0314203 0)
(0.0745007 0.0241338 0)
(0.0561145 0.00884451 0)
(0.0413274 -0.010956 0)
(0.0414708 -0.0289996 0)
(0.0523157 -0.0393599 0)
(0.0674261 -0.0421894 0)
(0.0830552 -0.0366125 0)
(0.100922 -0.034376 0)
(0.12285 -0.0385076 0)
(0.148889 -0.0477001 0)
(0.176463 -0.0512417 0)
(0.202228 -0.0454191 0)
(0.228399 -0.0388705 0)
(0.257388 -0.0338312 0)
(0.290789 -0.0309245 0)
(0.329542 -0.0316634 0)
(0.372304 -0.0351881 0)
(0.416248 -0.0389834 0)
(0.458277 -0.041909 0)
(0.497541 -0.0441044 0)
(0.534908 -0.0468979 0)
(0.571813 -0.0517592 0)
(0.609192 -0.0585164 0)
(0.646446 -0.0636192 0)
(0.68234 -0.0638011 0)
(0.71541 -0.0590191 0)
(0.746314 -0.0513393 0)
(0.776668 -0.0440277 0)
(0.808218 -0.0392001 0)
(0.841446 -0.0365765 0)
(0.875386 -0.0345182 0)
(0.907845 -0.0311854 0)
(0.936987 -0.0268185 0)
(0.962365 -0.0249382 0)
(0.986779 -0.0274978 0)
(1.01245 -0.0332648 0)
(1.03854 -0.0388408 0)
(1.06319 -0.0409039 0)
(1.0849 -0.038156 0)
(1.10406 -0.0321364 0)
(1.12308 -0.025995 0)
(1.14359 -0.0223312 0)
(1.16615 -0.021851 0)
(1.19023 -0.0227768 0)
(1.21384 -0.0218574 0)
(1.23483 -0.0180585 0)
(1.25323 -0.0136344 0)
(1.27058 -0.0116791 0)
(1.28781 -0.013868 0)
(1.30588 -0.0194151 0)
(1.32357 -0.0246947 0)
(1.33957 -0.0265863 0)
(1.35356 -0.0251517 0)
(1.36695 -0.0216471 0)
(1.38116 -0.0179799 0)
(1.39677 -0.0160063 0)
(1.41398 -0.0160574 0)
(1.43218 -0.017568 0)
(1.45025 -0.0190706 0)
(1.46727 -0.0185746 0)
(1.48317 -0.0157105 0)
(1.49888 -0.0123423 0)
(1.51461 -0.0112213 0)
(1.52938 -0.0135252 0)
(1.54263 -0.0171653 0)
(1.5547 -0.0200018 0)
(1.56603 -0.021625 0)
(1.57683 -0.0218576 0)
(1.58778 -0.0205747 0)
(1.59955 -0.0185054 0)
(1.61245 -0.0164505 0)
(1.626 -0.0144265 0)
(1.63853 -0.0118996 0)
(1.64951 -0.00898178 0)
(1.65994 -0.00626065 0)
(1.67052 -0.00354411 0)
(1.68145 -0.00153855 0)
(1.69037 -0.00109639 0)
(1.69605 -0.000510841 0)
(1.69962 0.00135421 0)
(1.70016 0.0045672 0)
(1.69728 0.00763792 0)
(1.69446 0.00855684 0)
(1.69039 0.00658244 0)
(1.687 0.00288984 0)
(1.68324 -0.0038843 0)
(1.67708 -0.00739349 0)
(1.69863 1.04458 0)
(1.57645 0.920896 0)
(1.5306 0.673332 0)
(1.30038 0.488816 0)
(0.974 0.365087 0)
(0.753187 0.274521 0)
(0.627104 0.197485 0)
(0.53982 0.146726 0)
(0.466466 0.104651 0)
(0.418506 0.0523416 0)
(0.390467 0.0125193 0)
(0.365408 -0.00240361 0)
(0.362885 -0.0152339 0)
(0.377896 -0.0233322 0)
(0.40119 -0.0257691 0)
(0.423797 -0.0213882 0)
(0.442835 -0.0240168 0)
(0.461799 -0.0298068 0)
(0.484932 -0.0373911 0)
(0.513904 -0.0548869 0)
(0.548349 -0.0761272 0)
(0.582495 -0.0901299 0)
(0.61316 -0.0960687 0)
(0.643317 -0.0992753 0)
(0.676347 -0.101826 0)
(0.713689 -0.105473 0)
(0.75396 -0.110425 0)
(0.794146 -0.114846 0)
(0.831607 -0.116428 0)
(0.864027 -0.114239 0)
(0.891512 -0.109998 0)
(0.91675 -0.106311 0)
(0.942376 -0.105191 0)
(0.969614 -0.105916 0)
(0.997269 -0.105598 0)
(1.02276 -0.101988 0)
(1.04549 -0.0952002 0)
(1.06713 -0.0881156 0)
(1.08999 -0.0831196 0)
(1.11479 -0.0810572 0)
(1.1412 -0.0806151 0)
(1.16676 -0.077797 0)
(1.18676 -0.0709548 0)
(1.20273 -0.0632071 0)
(1.21799 -0.056897 0)
(1.23379 -0.0540718 0)
(1.25101 -0.0543862 0)
(1.26949 -0.0551598 0)
(1.28674 -0.0529376 0)
(1.30147 -0.0480152 0)
(1.31591 -0.0423456 0)
(1.33132 -0.0374496 0)
(1.34815 -0.0348851 0)
(1.36671 -0.0352082 0)
(1.38619 -0.0359966 0)
(1.40348 -0.0344837 0)
(1.41754 -0.031384 0)
(1.43035 -0.0271411 0)
(1.44241 -0.0230421 0)
(1.45404 -0.0218324 0)
(1.46585 -0.0233339 0)
(1.47895 -0.0253648 0)
(1.49183 -0.024989 0)
(1.504 -0.0225546 0)
(1.51635 -0.0192694 0)
(1.5292 -0.0169631 0)
(1.54251 -0.016853 0)
(1.55663 -0.018778 0)
(1.57166 -0.0211054 0)
(1.58699 -0.0219888 0)
(1.60177 -0.020947 0)
(1.61478 -0.019133 0)
(1.62619 -0.01804 0)
(1.63656 -0.0174266 0)
(1.64552 -0.0173214 0)
(1.65341 -0.0177645 0)
(1.66166 -0.0183856 0)
(1.67074 -0.0189113 0)
(1.68089 -0.0195728 0)
(1.69218 -0.0197951 0)
(1.70335 -0.0203514 0)
(1.71382 -0.0215527 0)
(1.72369 -0.0221864 0)
(1.73283 -0.0216686 0)
(1.74113 -0.0206873 0)
(1.74813 -0.0207721 0)
(1.75357 -0.0225165 0)
(1.75839 -0.0250384 0)
(1.76221 -0.0270584 0)
(1.76334 -0.0276961 0)
(1.76209 -0.0265181 0)
(1.75742 -0.0240399 0)
(1.75356 -0.0230929 0)
(1.74981 -0.0232898 0)
(1.7451 -0.0273533 0)
(1.73932 -0.029143 0)
(1.58934 0.926122 0)
(1.60799 0.849724 0)
(1.70446 0.744077 0)
(1.76813 0.594866 0)
(1.62437 0.45671 0)
(1.47287 0.319178 0)
(1.34767 0.204537 0)
(1.22097 0.148795 0)
(1.09801 0.117022 0)
(1.00796 0.0727963 0)
(0.963071 0.0296661 0)
(0.932073 0.0129725 0)
(0.909595 0.0026042 0)
(0.910258 -0.00685901 0)
(0.922757 -0.0315424 0)
(0.946309 -0.064898 0)
(0.969174 -0.0842281 0)
(0.983934 -0.0923989 0)
(0.997823 -0.0999207 0)
(1.01559 -0.106724 0)
(1.03958 -0.115431 0)
(1.06909 -0.1236 0)
(1.09809 -0.128016 0)
(1.12357 -0.127041 0)
(1.14576 -0.12334 0)
(1.16696 -0.120326 0)
(1.18949 -0.120627 0)
(1.21413 -0.124346 0)
(1.23946 -0.128742 0)
(1.26237 -0.130085 0)
(1.28007 -0.126298 0)
(1.29336 -0.11803 0)
(1.30611 -0.10819 0)
(1.32076 -0.099498 0)
(1.33798 -0.0932357 0)
(1.35646 -0.0885793 0)
(1.37326 -0.0832738 0)
(1.38675 -0.0762127 0)
(1.3993 -0.0692532 0)
(1.41278 -0.0643861 0)
(1.42772 -0.0619931 0)
(1.44427 -0.0616185 0)
(1.45775 -0.0627116 0)
(1.46688 -0.0632216 0)
(1.47513 -0.0612481 0)
(1.48347 -0.0570632 0)
(1.49394 -0.052781 0)
(1.50645 -0.047894 0)
(1.52023 -0.0430786 0)
(1.53211 -0.0389017 0)
(1.5424 -0.0353411 0)
(1.55289 -0.0317902 0)
(1.56429 -0.0278375 0)
(1.57671 -0.0237169 0)
(1.59012 -0.0218929 0)
(1.60252 -0.0231697 0)
(1.61307 -0.0243953 0)
(1.62317 -0.0247644 0)
(1.63197 -0.0239787 0)
(1.6393 -0.0221363 0)
(1.6472 -0.0196723 0)
(1.65671 -0.01801 0)
(1.66646 -0.0172917 0)
(1.67617 -0.0165315 0)
(1.68597 -0.0152916 0)
(1.69612 -0.0137253 0)
(1.70625 -0.0109992 0)
(1.71662 -0.00743129 0)
(1.72746 -0.00513136 0)
(1.73828 -0.00529757 0)
(1.7487 -0.00764934 0)
(1.75827 -0.0107922 0)
(1.76717 -0.0125195 0)
(1.77579 -0.0122066 0)
(1.78314 -0.0103993 0)
(1.7887 -0.00715465 0)
(1.79326 -0.0026988 0)
(1.79784 0.00193467 0)
(1.80466 0.00436728 0)
(1.8127 0.00441356 0)
(1.82098 0.0032808 0)
(1.8294 0.00187706 0)
(1.83796 0.000611635 0)
(1.84638 -4.70415e-05 0)
(1.85266 -0.000174066 0)
(1.85713 -0.000545258 0)
(1.85895 -0.00250351 0)
(1.86048 -0.00646959 0)
(1.86307 -0.0140691 0)
(1.86451 -0.0230147 0)
(1.86336 -0.0299343 0)
(1.86033 -0.0348889 0)
(1.85817 -0.0369165 0)
(1.8544 -0.0364763 0)
(1.85007 -0.0337408 0)
(1.84188 -0.0316876 0)
(1.49902 0.798192 0)
(1.54574 0.749189 0)
(1.65575 0.676843 0)
(1.77675 0.601401 0)
(1.8084 0.518654 0)
(1.78283 0.442763 0)
(1.75271 0.35384 0)
(1.69714 0.280671 0)
(1.61795 0.23311 0)
(1.54181 0.174976 0)
(1.50301 0.10361 0)
(1.48459 0.0474262 0)
(1.45776 0.0137794 0)
(1.43794 -0.0136525 0)
(1.43728 -0.0338083 0)
(1.44503 -0.0591374 0)
(1.4577 -0.089242 0)
(1.46216 -0.109123 0)
(1.46373 -0.11934 0)
(1.46664 -0.125815 0)
(1.47268 -0.130812 0)
(1.48451 -0.138609 0)
(1.50075 -0.148567 0)
(1.51431 -0.156031 0)
(1.52298 -0.159271 0)
(1.52883 -0.158487 0)
(1.53458 -0.156555 0)
(1.54227 -0.155595 0)
(1.5524 -0.155981 0)
(1.56312 -0.156192 0)
(1.57142 -0.154093 0)
(1.5762 -0.148948 0)
(1.57995 -0.142758 0)
(1.5853 -0.137062 0)
(1.59338 -0.132934 0)
(1.60434 -0.129697 0)
(1.6165 -0.124773 0)
(1.62562 -0.117238 0)
(1.63185 -0.109538 0)
(1.63876 -0.102824 0)
(1.64745 -0.0972249 0)
(1.65805 -0.0925002 0)
(1.66684 -0.0902055 0)
(1.67369 -0.0880871 0)
(1.67911 -0.0832572 0)
(1.68449 -0.0762739 0)
(1.69244 -0.069929 0)
(1.70195 -0.0645949 0)
(1.71139 -0.0618031 0)
(1.72057 -0.0610258 0)
(1.72908 -0.0593256 0)
(1.7379 -0.0556524 0)
(1.7478 -0.0503778 0)
(1.75794 -0.0449018 0)
(1.76739 -0.040995 0)
(1.776 -0.0387007 0)
(1.78372 -0.0375222 0)
(1.79074 -0.037417 0)
(1.79734 -0.0379798 0)
(1.80427 -0.0374873 0)
(1.81183 -0.0354616 0)
(1.81938 -0.0327105 0)
(1.82647 -0.0302355 0)
(1.83329 -0.0285124 0)
(1.84031 -0.0272611 0)
(1.84878 -0.0263864 0)