/*--------------------------------*- C++ -*----------------------------------*\
  =========                 |
  \\      /  F ield         | OpenFOAM: The Open Source CFD Toolbox
   \\    /   O peration     | Website:  https://openfoam.org
    \\  /    A nd           | Version:  7
     \\/     M anipulation  |
\*---------------------------------------------------------------------------*/
FoamFile
{
    version     2.0;
    format      ascii;
    class       volScalarField;
    location    "105";
    object      p;
}
// * * * * * * * * * * * * * * * * * * * * * * * * * * * * * * * * * * * * * //

dimensions      [0 2 -2 0 0 0 0];

internalField   nonuniform List<scalar> 
1987
(
0.633508
0.617842
0.609084
0.599605
0.587944
0.574121
0.632325
0.616668
0.607942
0.598508
0.586894
0.573115
0.557429
0.540287
0.522138
0.503361
0.484269
0.46511
0.446083
0.427344
0.409011
0.391177
0.373909
0.357255
0.341248
0.325907
0.311243
0.297256
0.283937
0.27127
0.259266
0.62903
0.613439
0.604834
0.595563
0.584126
0.570521
0.554998
0.538008
0.519998
0.501349
0.482375
0.463325
0.444399
0.425752
0.407506
0.389752
0.372559
0.355974
0.340032
0.324752
0.310146
0.296213
0.282941
0.270318
0.258378
0.623627
0.60816
0.599765
0.590775
0.579645
0.566344
0.551107
0.534382
0.516615
0.498192
0.479424
0.460565
0.441814
0.42333
0.405234
0.387619
0.370554
0.354088
0.338256
0.323079
0.308569
0.294725
0.28153
0.268979
0.257146
0.616133
0.600845
0.592748
0.584156
0.573461
0.560591
0.545762
0.529415
0.511997
0.493894
0.475421
0.456834
0.438335
0.420081
0.402198
0.38478
0.367897
0.351599
0.335922
0.32089
0.306514
0.292795
0.279708
0.267256
0.25557
0.606568
0.591516
0.583801
0.575722
0.565591
0.553279
0.538977
0.523119
0.506153
0.488466
0.470377
0.452142
0.433967
0.416013
0.398405
0.381241
0.364593
0.348512
0.333035
0.318188
0.303985
0.290425
0.277477
0.265152
0.25365
0.594963
0.5802
0.572952
0.565499
0.556055
0.544425
0.530769
0.515512
0.499099
0.481921
0.464301
0.446498
0.428721
0.411133
0.393863
0.37701
0.360649
0.344833
0.3296
0.314979
0.300987
0.287621
0.27484
0.262669
0.251389
0.581352
0.566934
0.560233
0.553515
0.544881
0.534055
0.521161
0.506612
0.490852
0.474276
0.45721
0.439917
0.422609
0.405454
0.388582
0.372096
0.356073
0.340569
0.325624
0.311268
0.297524
0.284385
0.271802
0.259812
0.248791
0.565781
0.551758
0.545682
0.539806
0.532101
0.522198
0.510179
0.496443
0.481434
0.46555
0.44912
0.432414
0.415646
0.398988
0.382574
0.36651
0.350875
0.335729
0.321114
0.307064
0.293603
0.280726
0.26837
0.256586
0.245859
0.548301
0.534723
0.529347
0.524414
0.517751
0.508886
0.497853
0.485033
0.47087
0.455766
0.440054
0.424008
0.407849
0.391751
0.375853
0.360264
0.345066
0.330324
0.316081
0.302374
0.289233
0.276649
0.264548
0.252997
0.242597
0.528969
0.515883
0.511279
0.507385
0.501875
0.494159
0.484218
0.472414
0.45919
0.444949
0.430034
0.414721
0.399237
0.38376
0.368435
0.353372
0.338661
0.324366
0.310535
0.297208
0.284421
0.272164
0.260346
0.249051
0.23901
0.50785
0.495303
0.491535
0.488773
0.484519
0.47806
0.469313
0.458621
0.446424
0.43313
0.419087
0.404577
0.389832
0.375036
0.360337
0.345852
0.331672
0.317867
0.304488
0.291578
0.279177
0.267277
0.255771
0.244756
0.235103
0.485015
0.47305
0.47018
0.468635
0.465737
0.460635
0.45318
0.443692
0.432608
0.42034
0.407241
0.393601
0.379657
0.365599
0.351579
0.33772
0.324117
0.310843
0.297953
0.285494
0.273513
0.262
0.250832
0.24012
0.230881
0.460542
0.4492
0.447283
0.447034
0.445585
0.441936
0.435867
0.427671
0.41778
0.406613
0.394528
0.381823
0.368739
0.355473
0.342183
0.328996
0.316012
0.303308
0.290944
0.278971
0.26744
0.256343
0.245539
0.235151
0.226352
0.434515
0.423833
0.42292
0.42404
0.424125
0.422019
0.417423
0.410601
0.401982
0.391987
0.380983
0.369273
0.357106
0.344684
0.332172
0.319701
0.307377
0.295281
0.283477
0.272021
0.26097
0.250316
0.239902
0.229858
0.221522
0.407022
0.397036
0.397171
0.399724
0.401422
0.400942
0.397902
0.392533
0.385258
0.376503
0.366641
0.355984
0.344786
0.333258
0.321569
0.309857
0.298231
0.28678
0.275569
0.26466
0.254116
0.243933
0.233932
0.224253
0.216398
0.378159
0.3689
0.370121
0.374165
0.377547
0.37877
0.377362
0.373518
0.367654
0.360202
0.351541
0.34199
0.331813
0.321225
0.310401
0.299487
0.288596
0.277822
0.267236
0.256903
0.246894
0.237205
0.227641
0.218344
0.210988
0.348026
0.339523
0.341861
0.347444
0.352573
0.355569
0.355862
0.35361
0.34922
0.343129
0.335723
0.32733
0.318219
0.308613
0.298696
0.288616
0.278495
0.26843
0.258498
0.248767
0.239317
0.230146
0.221041
0.212143
0.2053
0.316728
0.309005
0.312486
0.319648
0.326578
0.331408
0.333465
0.332866
0.330008
0.325332
0.319231
0.31204
0.304039
0.295456
0.286481
0.27727
0.26795
0.258624
0.249372
0.24027
0.231401
0.222771
0.214144
0.20566
0.199342
0.284373
0.277454
0.282093
0.290866
0.299643
0.30636
0.310238
0.311346
0.310072
0.306858
0.302107
0.296162
0.289309
0.281785
0.273787
0.265476
0.256987
0.248427
0.239881
0.231429
0.223164
0.215093
0.206964
0.198907
0.193123
0.251076
0.244977
0.250787
0.261192
0.271852
0.280502
0.286249
0.289112
0.289468
0.28776
0.284399
0.279737
0.274068
0.267636
0.260645
0.253263
0.245631
0.237861
0.230044
0.222264
0.214622
0.207129
0.199514
0.191896
0.186651
0.216952
0.211689
0.218672
0.230723
0.243292
0.253911
0.261567
0.266228
0.268253
0.268089
0.266154
0.262809
0.258354
0.253043
0.247087
0.24066
0.233908
0.226951
0.219884
0.212795
0.205792
0.198894
0.191809
0.184637
0.179933
0.182123
0.177707
0.185859
0.199557
0.214053
0.226668
0.236267
0.242758
0.246486
0.247899
0.24742
0.24542
0.242207
0.238043
0.233145
0.227695
0.221846
0.215722
0.209422
0.203041
0.196694
0.190405
0.183862
0.177143
0.172977
0.14671
0.14315
0.152458
0.167798
0.184227
0.198856
0.210422
0.218771
0.22423
0.227245
0.228248
0.227616
0.225669
0.222673
0.218854
0.214401
0.209472
0.204198
0.198682
0.193024
0.187346
0.181679
0.17569
0.169424
0.165789
0.110839
0.108138
0.118586
0.135549
0.153906
0.170558
0.184108
0.194336
0.201545
0.206183
0.208688
0.209445
0.20878
0.20697
0.204248
0.200807
0.196814
0.192405
0.187688
0.182765
0.177768
0.172736
0.16731
0.161493
0.158372
0.0746369
0.0727963
0.0843564
0.102917
0.123188
0.141862
0.157402
0.16952
0.178495
0.18477
0.188791
0.190951
0.191584
0.190974
0.189361
0.186947
0.183902
0.18037
0.176463
0.172286
0.167981
0.163596
0.158742
0.153362
0.150729
0.0382317
0.0372482
0.0498885
0.0700088
0.0921687
0.112852
0.130382
0.144396
0.155143
0.163064
0.168611
0.172182
0.174122
0.174722
0.174229
0.17285
0.170764
0.168119
0.165032
0.16161
0.158004
0.154279
0.15001
0.145048
0.142855
0.00175222
0.00161915
0.0153005
0.0369335
0.060946
0.0836184
0.103128
0.119033
0.131553
0.141123
0.148199
0.153187
0.156439
0.158255
0.158887
0.158551
0.15743
0.155679
0.15342
0.150759
0.147857
0.144807
0.141147
0.136575
0.134738
-0.0346722
-0.0339657
-0.0192886
0.00380041
0.0296185
0.0542478
0.0757183
0.0935039
0.10779
0.119005
0.127608
0.134012
0.138578
0.141611
0.143371
0.144081
0.14393
0.143078
0.141651
0.139758
0.137561
0.135195
0.132187
0.127991
0.126348
-0.0709127
-0.0693816
-0.0537596
-0.0292809
-0.00171508
0.0248292
0.0482319
0.0678792
0.0839182
0.0967683
0.10689
0.114706
0.120581
0.124829
0.127717
0.129473
0.130292
0.130341
0.129752
0.128631
0.127136
0.125454
0.123173
0.119422
0.117654
-0.106841
-0.104505
-0.0879935
-0.062201
-0.0329561
-0.00454933
0.0207482
0.04223
0.0600015
0.0744705
0.0860991
0.0953151
0.102491
0.107948
0.111959
0.114758
0.116546
0.117496
0.117746
0.117402
0.116608
0.11559
0.114112
0.111049
0.108457
-0.14233
-0.139216
-0.121872
-0.0948511
-0.0640065
-0.0338
-0.00665437
0.0166268
0.0361036
0.0521692
0.0652861
0.0758873
0.0843522
0.0910074
0.0961331
0.0999691
0.102721
0.104568
0.105656
0.106095
0.106004
0.105607
0.104924
0.103102
0.0992183
-0.177251
-0.173394
-0.15528
-0.127124
-0.094769
-0.0628359
-0.0338982
-0.00886054
0.0122871
0.0299211
0.0445025
0.0564688
0.0662054
0.074045
0.0802738
0.0851371
0.088846
0.0915838
0.0935058
0.0947284
0.0953534
0.095569
0.0955869
0.0950804
0.0924058
-0.211476
-0.20692
-0.188101
-0.158913
-0.125148
-0.0915713
-0.0609068
-0.0341636
-0.0113861
0.00778199
0.0237988
0.0371053
0.0480924
0.0570983
0.0644148
0.0702928
0.0749483
0.078569
0.0813173
0.0833209
0.0846751
0.0855255
0.0861772
0.0867681
0.0855854
-0.244922
-0.239652
-0.220226
-0.190116
-0.155048
-0.119922
-0.0876051
-0.059215
-0.0348555
-0.0141934
0.00322445
0.0178416
0.0300536
0.040204
0.0485896
0.0554664
0.0610553
0.0655482
0.0691131
0.0718891
0.0739744
0.0754807
0.0767317
0.0781197
0.0779739
-0.277592
-0.271412
-0.251555
-0.220632
-0.184379
-0.147806
-0.11392
-0.0839493
-0.0580621
-0.035952
-0.0171725
-0.0012788
0.0121285
0.0233978
0.0328305
0.0406873
0.0471935
0.0525451
0.0569146
0.0604503
0.0632569
0.0654245
0.0672659
0.0692923
-0.30922
-0.302214
-0.282011
-0.250363
-0.21305
-0.175144
-0.13978
-0.108303
-0.0809488
-0.057442
-0.0373452
-0.0202136
-0.0056444
0.00671458
0.017169
0.0259838
0.0333885
0.0395826
0.0447424
0.0490229
0.0525357
0.0553587
0.0577903
0.0604052
-0.339685
-0.331936
-0.311497
-0.279219
-0.240973
-0.201859
-0.165117
-0.132214
-0.10346
-0.0786137
-0.0572487
-0.0389219
-0.0232282
-0.00981214
0.00163565
0.0113837
0.0196653
0.0266831
0.0326166
0.0376258
0.0418285
0.0452961
0.0483131
0.0514905
-0.368915
-0.360491
-0.339803
-0.307174
-0.268058
-0.227877
-0.189865
-0.155623
-0.125543
-0.0994192
-0.0768396
-0.0573645
-0.0405874
-0.0261501
-0.0137404
-0.00308652
0.0060478
0.0138683
0.020557
0.0262776
0.0311535
0.0352527
0.0388439
-0.39683
-0.387782
-0.366899
-0.334097
-0.294218
-0.25313
-0.21396
-0.178475
-0.147148
-0.119813
-0.0960768
-0.0755039
-0.0576878
-0.0422684
-0.0289309
-0.0174014
-0.00744068
0.00115936
0.00858271
0.014996
0.0205277
0.025244
0.0293957
-0.423353
-0.413726
-0.39273
-0.359708
-0.31953
-0.277555
-0.237338
-0.200714
-0.168225
-0.139751
-0.114921
-0.0933048
-0.0744974
-0.0581376
-0.0439094
-0.0315365
-0.020778
-0.0114236
-0.00328778
0.0037981
0.009967
0.0152852
-0.448412
-0.438246
-0.417237
-0.384157
-0.343717
-0.301074
-0.259942
-0.222292
-0.18873
-0.159194
-0.133335
-0.110734
-0.0909855
-0.0737302
-0.0586504
-0.0454688
-0.033943
-0.0238612
-0.0150367
-0.00729952
-0.00051269
0.00539139
-0.471947
-0.461274
-0.44034
-0.407361
-0.366743
-0.323633
-0.281715
-0.243161
-0.208621
-0.178103
-0.151286
-0.127759
-0.107124
-0.08902
-0.0731302
-0.0591766
-0.0469158
-0.036135
-0.026647
-0.0182809
-0.0108962
-0.00442282
-0.493905
-0.482752
-0.461971
-0.429229
-0.388594
-0.34514
-0.30264
-0.263277
-0.227858
-0.196443
-0.16874
-0.144352
-0.122886
-0.103983
-0.0873268
-0.0726396
-0.0596777
-0.0482279
-0.0381026
-0.0291309
-0.0211691
-0.514238
-0.502636
-0.482077
-0.449704
-0.409225
-0.365592
-0.322634
-0.282597
-0.246405
-0.214182
-0.185669
-0.160487
-0.138247
-0.118597
-0.10122
-0.0858388
-0.0722113
-0.0601237
-0.0493886
-0.0398354
-0.0313179
-0.500621
-0.468739
-0.428581
-0.384942
-0.341663
-0.301085
-0.264231
-0.231292
-0.202048
-0.176138
-0.153187
-0.132841
-0.11479
-0.0987572
-0.0845006
-0.0718075
-0.0604909
-0.0503811
-0.04133
-0.486297
-0.446618
-0.403142
-0.359696
-0.318712
-0.281307
-0.247746
-0.217851
-0.191286
-0.167684
-0.146698
-0.128021
-0.111379
-0.096531
-0.0832656
-0.0713968
-0.060756
-0.0511939
-0.420156
-0.376705
-0.335451
-0.29761
-0.263522
-0.23306
-0.205911
-0.181721
-0.160152
-0.140899
-0.12369
-0.10829
-0.0944859
-0.0820948
-0.0709491
-0.39266
-0.351276
-0.313118
-0.278604
-0.247657
-0.219998
-0.195284
-0.173188
-0.153409
-0.135679
-0.119765
-0.105458
-0.0925744
-0.0809505
-0.327813
-0.292974
-0.26163
-0.233533
-0.20836
-0.185795
-0.165541
-0.147335
-0.130947
-0.116171
-0.102827
-0.0907516
-0.274966
-0.246508
-0.220943
-0.197963
-0.177286
-0.158649
-0.141828
-0.126618
-0.112844
-0.100345
-0.233022
-0.209689
-0.188636
-0.169613
-0.1524
-0.136793
-0.12262
-0.109725
-0.180227
-0.162659
-0.14669
-0.13215
-0.118885
-0.14143
0.246877
0.23452
0.222663
0.2117
0.201304
0.191715
0.182708
0.174437
0.166728
0.159686
0.153165
0.147252
0.14181
0.136915
0.132424
0.128429
0.124831
0.121697
0.11891
0.116562
0.114533
0.11292
0.11163
0.110771
0.1103
0.246094
0.233833
0.222053
0.211161
0.200825
0.191292
0.182332
0.174104
0.16643
0.159421
0.152928
0.147039
0.141623
0.136753
0.132276
0.128293
0.124701
0.12158
0.118802
0.116462
0.114441
0.112835
0.111549
0.110694
0.110224
0.245028
0.232914
0.221251
0.210466
0.200218
0.190764
0.181871
0.173701
0.166076
0.15911
0.152651
0.146792
0.1414
0.136561
0.132127
0.128141
0.124566
0.12146
0.1187
0.116364
0.114345
0.112745
0.111463
0.110611
0.110143
0.243678
0.231764
0.220258
0.209614
0.199483
0.190133
0.181325
0.17323
0.165667
0.158754
0.15234
0.146518
0.141156
0.13634
0.13194
0.127976
0.124418
0.121325
0.118575
0.116249
0.114239
0.112647
0.11137
0.110521
0.110056
0.242045
0.230382
0.219073
0.208606
0.19862
0.189397
0.180694
0.172691
0.165202
0.158354
0.151992
0.146216
0.14089
0.136104
0.131719
0.127796
0.124258
0.12118
0.118442
0.116127
0.114127
0.112542
0.111271
0.110427
0.109963
0.24013
0.228771
0.217698
0.207443
0.19763
0.188559
0.179979
0.172083
0.164681
0.157908
0.151607
0.145884
0.1406
0.13585
0.131492
0.127603
0.124086
0.121025
0.118301
0.115997
0.114008
0.11243
0.111166
0.110326
0.109865
0.237933
0.22693
0.216133
0.206126
0.196512
0.187617
0.17918
0.171407
0.164105
0.157418
0.151186
0.145522
0.140285
0.135575
0.131255
0.127398
0.123902
0.120859
0.11815
0.11586
0.113882
0.112313
0.111055
0.11022
0.109761
0.235458
0.224861
0.214379
0.204654
0.195268
0.186573
0.178297
0.170664
0.163475
0.156884
0.150729
0.145131
0.139947
0.135281
0.131004
0.12718
0.123707
0.120683
0.117991
0.115715
0.113748
0.112188
0.110938
0.110108
0.109652
0.232706
0.222565
0.212437
0.203029
0.193899
0.185427
0.177332
0.169855
0.16279
0.156306
0.150237
0.144711
0.139585
0.134968
0.130735
0.126948
0.123501
0.120498
0.117823
0.115562
0.113608
0.112057
0.110816
0.10999
0.109538
0.229679
0.220046
0.21031
0.201253
0.192405
0.184181
0.176284
0.168978
0.162051
0.155684
0.149708
0.144262
0.139199
0.134635
0.130449
0.126705
0.123286
0.120303
0.117646
0.115401
0.113461
0.11192
0.110687
0.109867
0.109418
0.226381
0.217303
0.207997
0.199327
0.190788
0.182834
0.175155
0.168037
0.161258
0.155019
0.149145
0.143785
0.13879
0.134283
0.130144
0.126512
0.123062
0.120098
0.117461
0.115233
0.113307
0.111777
0.110553
0.109738
0.109293
0.222814
0.214341
0.205502
0.197251
0.189048
0.181389
0.173945
0.16703
0.160413
0.154312
0.148547
0.143279
0.138358
0.133911
0.129819
0.126209
0.122828
0.119884
0.117268
0.115058
0.113147
0.111628
0.110413
0.109605
0.109162
0.218981
0.211161
0.202826
0.195029
0.187187
0.179845
0.172655
0.165958
0.159515
0.153562
0.147915
0.142746
0.137903
0.133521
0.129479
0.1259
0.122582
0.11966
0.117067
0.114875
0.11298
0.111473
0.110268
0.109465
0.109027
0.214888
0.207766
0.199971
0.19266
0.185206
0.178205
0.171286
0.164823
0.158566
0.152771
0.147248
0.142185
0.137426
0.133113
0.129125
0.125594
0.122329
0.119428
0.116857
0.114685
0.112807
0.111312
0.110117
0.109321
0.108886
0.210538
0.204159
0.196939
0.190148
0.183106
0.176468
0.169838
0.163625
0.157565
0.151938
0.146549
0.141597
0.136927
0.132688
0.128757
0.125269
0.122063
0.119189
0.11664
0.114488
0.112627
0.111145
0.10996
0.109172
0.10874
0.205935
0.200344
0.193732
0.187493
0.18089
0.174638
0.168313
0.162364
0.156514
0.151065
0.145816
0.140982
0.136406
0.132244
0.128374
0.124929
0.121779
0.118945
0.116415
0.114284
0.112441
0.110972
0.109799
0.109017
0.10859
0.201085
0.196323
0.190353
0.184698
0.178557
0.172713
0.166712
0.161042
0.155413
0.150151
0.145051
0.140341
0.135863
0.131783
0.127976
0.124578
0.12146
0.118687
0.116182
0.114074
0.11225
0.110794
0.109633
0.108858
0.108434
0.195992
0.192102
0.186804
0.181766
0.17611
0.170697
0.165035
0.15966
0.154263
0.149198
0.144254
0.139674
0.1353
0.131305
0.127566
0.124219
0.121148
0.118388
0.115945
0.113857
0.112053
0.110611
0.109461
0.108694
0.108274
0.190663
0.187682
0.183088
0.178697
0.17355
0.16859
0.163285
0.158218
0.153065
0.148206
0.143426
0.138982
0.134716
0.13081
0.127141
0.123849
0.120822
0.118194
0.115703
0.113634
0.11185
0.110422
0.109285
0.108525
0.108109
0.185102
0.18307
0.179208
0.175495
0.170879
0.166393
0.161461
0.156717
0.151819
0.147176
0.142567
0.138264
0.134113
0.130298
0.126704
0.123469
0.120485
0.117866
0.115443
0.113407
0.111641
0.110229
0.109103
0.108351
0.10794
0.179313
0.178268
0.175165
0.172162
0.168099
0.164108
0.159565
0.155158
0.150527
0.146108
0.141678
0.137523
0.133489
0.12977
0.126253
0.123078
0.120143
0.117558
0.115229
0.113173
0.111428
0.11003
0.108917
0.108174
0.107766
0.173302
0.173282
0.170962
0.168701
0.165212
0.161736
0.157599
0.153541
0.149189
0.145002
0.140759
0.136756
0.132845
0.129226
0.125789
0.122677
0.119794
0.117247
0.114947
0.112927
0.11121
0.109827
0.108727
0.107991
0.107588
0.167072
0.168115
0.166602
0.165112
0.162219
0.159278
0.155564
0.151868
0.147806
0.14386
0.139811
0.135967
0.132183
0.128667
0.125312
0.122266
0.119436
0.116931
0.11466
0.112717
0.110987
0.109619
0.108532
0.107805
0.107406
0.160623
0.162772
0.162086
0.161399
0.159122
0.156736
0.153461
0.15014
0.146379
0.142683
0.138835
0.135154
0.131502
0.128092
0.124823
0.121845
0.11907
0.116608
0.114372
0.112454
0.110759
0.109406
0.108333
0.107615
0.107219
0.153952
0.157254
0.157418
0.157563
0.155926
0.154111
0.151292
0.148357
0.144908
0.14147
0.13783
0.134319
0.130804
0.127503
0.124322
0.121414
0.118696
0.116279
0.114079
0.112186
0.110533
0.109188
0.10813
0.10742
0.107029
0.147052
0.151563
0.152601
0.153604
0.15263
0.151403
0.149055
0.14652
0.143394
0.140222
0.136797
0.133461
0.130086
0.126899
0.123809
0.120973
0.118314
0.115943
0.113781
0.111918
0.110286
0.10898
0.107924
0.107222
0.106834
0.139913
0.145704
0.147643
0.149526
0.149239
0.148614
0.146755
0.144629
0.141836
0.138939
0.135736
0.13258
0.12935
0.12628
0.123284
0.120523
0.117923
0.1156
0.113478
0.111645
0.110038
0.108752
0.107715
0.10702
0.106636
0.132529
0.139674
0.142551
0.145341
0.145771
0.145762
0.144407
0.142702
0.140252
0.137636
0.134661
0.131688
0.128607
0.125654
0.122754
0.120068
0.11753
0.115254
0.113172
0.111371
0.10979
0.10852
0.107501
0.106814
0.106435
0.124742
0.133365
0.137265
0.141013
0.142198
0.142834
0.142005
0.140739
0.138645
0.136319
0.133577
0.130793
0.127861
0.125029
0.122223
0.119613
0.117135
0.114907
0.112863
0.111093
0.109539
0.108287
0.107283
0.106607
0.10623
0.116243
0.126635
0.131708
0.136377
0.138332
0.139619
0.139343
0.138539
0.136828
0.134819
0.132336
0.129762
0.127002
0.124308
0.121615
0.119094
0.11669
0.11452
0.112524
0.110793
0.10927
0.108042
0.107056
0.106391
0.106021
0.106373
0.11833
0.125105
0.130504
0.133382
0.135311
0.135688
0.135405
0.134184
0.132578
0.130456
0.12818
0.125681
0.1232
0.120689
0.118316
0.116036
0.113966
0.112055
0.110389
0.108921
0.107733
0.106779
0.106135
0.105777
0.0996293
0.110488
0.118367
0.124348
0.128044
0.130587
0.131608
0.131862
0.13115
0.129978
0.128249
0.126306
0.124099
0.121865
0.119567
0.117371
0.115241
0.113294
0.111485
0.109903
0.108504
0.107368
0.106453
0.105835
0.105492
0.0877766
0.0950873
0.0911605
)
;

boundaryField
{
    inlet
    {
        type            zeroGradient;
    }
    outlet
    {
        type            fixedValue;
        value           nonuniform 0();
    }
    cylinder
    {
        type            zeroGradient;
    }
    top
    {
        type            symmetryPlane;
    }
    bottom
    {
        type            symmetryPlane;
    }
    defaultFaces
    {
        type            empty;
    }
    procBoundary4to0
    {
        type            processor;
        value           nonuniform List<scalar> 
56
(
0.0805939
0.0698682
0.0733608
0.0698682
0.0616161
0.0533133
0.042556
0.042556
0.033617
0.019984
0.019984
0.0106245
0.00133152
-0.0141438
-0.0141438
-0.0237588
-0.033256
-0.0426244
-0.060899
-0.060899
-0.070436
-0.0797966
-0.0889734
-0.0979604
-0.106753
-0.127823
-0.127823
0.0941162
0.104059
0.112248
0.118552
0.122854
0.1259
0.127484
0.128231
0.128001
0.127253
0.125913
0.124309
0.122404
0.120428
0.118354
0.116348
0.114379
0.112565
0.11087
0.109379
0.108056
0.106978
0.106107
0.105519
0.105191
0.0805939
0.0835434
0.0835434
0.0864381
)
;
    }
    procBoundary4to5
    {
        type            processor;
        value           nonuniform List<scalar> 
28
(
-0.532911
-0.520889
-0.520889
-0.517571
-0.517571
-0.50235
-0.463302
-0.463302
-0.435958
-0.435958
-0.407542
-0.366169
-0.366169
-0.341682
-0.306619
-0.306619
-0.287657
-0.258913
-0.258913
-0.244593
-0.220964
-0.19959
-0.19959
-0.190485
-0.172602
-0.156306
-0.156306
-0.150458
)
;
    }
    procBoundary4to8
    {
        type            processor;
        value           nonuniform List<scalar> 
51
(
0.632578
0.616961
0.608259
0.598855
0.587277
0.573539
0.558393
0.558393
0.541215
0.523032
0.504224
0.485103
0.465917
0.446866
0.428102
0.409747
0.391891
0.374603
0.357928
0.341901
0.326542
0.311859
0.297854
0.284518
0.271836
0.259806
0.247365
0.234966
0.223074
0.212075
0.201648
0.19203
0.182997
0.174701
0.166968
0.159906
0.153366
0.147435
0.141976
0.137062
0.132557
0.128559
0.124947
0.121803
0.119008
0.116652
0.114616
0.112998
0.111704
0.110843
0.11037
)
;
    }
}


// ************************************************************************* //
