/*--------------------------------*- C++ -*----------------------------------*\
  =========                 |
  \\      /  F ield         | OpenFOAM: The Open Source CFD Toolbox
   \\    /   O peration     | Website:  https://openfoam.org
    \\  /    A nd           | Version:  7
     \\/     M anipulation  |
\*---------------------------------------------------------------------------*/
FoamFile
{
    version     2.0;
    format      ascii;
    class       volVectorField;
    location    "105";
    object      U;
}
// * * * * * * * * * * * * * * * * * * * * * * * * * * * * * * * * * * * * * //

dimensions      [0 1 -1 0 0 0 0];

internalField   nonuniform List<vector> 
1987
(
(0.0064876 0.00045678 -2.30515e-20)
(0.0355228 0.00135216 1.54131e-20)
(0.0873111 0.00189372 -4.9566e-21)
(0.145789 0.00211383 2.15427e-20)
(0.205244 0.00204307 2.35109e-20)
(0.26271 0.0017761 -7.53692e-21)
(0.00663226 -0.0112164 2.29687e-20)
(0.0358394 -0.0245818 -1.53589e-20)
(0.0877256 -0.0312612 4.94331e-21)
(0.146249 -0.0335335 -2.14647e-20)
(0.205719 -0.0332851 -2.34305e-20)
(0.263184 -0.0318441 7.51382e-21)
(0.317232 -0.0299797 5.16425e-21)
(0.367542 -0.0280491 -3.59663e-20)
(0.414219 -0.0261813 4.0705e-21)
(0.457502 -0.0244084 -5.41906e-21)
(0.497646 -0.0227324 -1.79048e-20)
(0.534895 -0.0211485 -1.6815e-20)
(0.569469 -0.0196516 1.01135e-20)
(0.601575 -0.0182367 1.19562e-20)
(0.6314 -0.0168991 3.30201e-22)
(0.659116 -0.0156347 1.4096e-20)
(0.684881 -0.0144395 -1.05116e-20)
(0.708842 -0.0133097 -1.69564e-20)
(0.731131 -0.0122421 5.87555e-21)
(0.751872 -0.0112334 -2.59651e-20)
(0.771177 -0.010281 -1.61418e-21)
(0.78915 -0.00938328 1.85854e-21)
(0.805891 -0.00853686 -3.9504e-21)
(0.821495 -0.00773179 -7.60734e-21)
(0.836022 -0.00696658 -4.57041e-21)
(0.00737896 -0.022866 -2.36429e-20)
(0.0374644 -0.0504692 -1.24001e-20)
(0.0897802 -0.0643616 1.29705e-20)
(0.148448 -0.069126 4.91461e-20)
(0.207898 -0.0685613 -3.5473e-20)
(0.265264 -0.0654157 1.70142e-20)
(0.319186 -0.0613402 -6.28398e-22)
(0.369365 -0.0571351 2.76686e-20)
(0.415918 -0.0531039 -5.76446e-21)
(0.459085 -0.0493252 -4.10188e-21)
(0.499122 -0.0458016 7.44853e-20)
(0.53627 -0.0425173 7.93453e-22)
(0.570752 -0.0394548 -7.69456e-20)
(0.602771 -0.0365975 3.74036e-20)
(0.632515 -0.0339305 6.83261e-21)
(0.660156 -0.0314397 -1.40202e-20)
(0.685852 -0.0291126 2.78947e-20)
(0.709747 -0.0269375 1.77022e-21)
(0.731976 -0.0249037 -2.43883e-20)
(0.752659 -0.0230013 8.82523e-20)
(0.77191 -0.021222 2.59651e-20)
(0.789832 -0.0195594 -3.73536e-20)
(0.80653 -0.0180038 -1.76245e-20)
(0.822095 -0.016535 -3.02376e-21)
(0.836564 -0.0151521 6.82282e-21)
(0.00872457 -0.0344438 4.78634e-20)
(0.0403918 -0.0762155 1.37568e-21)
(0.0934686 -0.0972989 6.23305e-20)
(0.15238 -0.104557 -9.15399e-20)
(0.211776 -0.103688 1.01702e-19)
(0.268946 -0.0988512 8.64055e-21)
(0.322623 -0.0925768 8.98511e-21)
(0.372553 -0.0861077 -1.52716e-20)
(0.41887 -0.0799223 -4.96516e-20)
(0.461818 -0.0741464 8.1742e-21)
(0.501653 -0.0687828 1.32051e-20)
(0.538616 -0.063805 -4.74348e-20)
(0.572926 -0.0591832 7.83683e-21)
(0.604788 -0.0548894 -4.21969e-20)
(0.634386 -0.0508981 8.1179e-20)
(0.661893 -0.0471859 3.13502e-20)
(0.687464 -0.0437314 -4.65049e-21)
(0.711244 -0.0405149 9.45465e-20)
(0.733366 -0.0375187 -2.49522e-20)
(0.753952 -0.0347261 -5.32794e-20)
(0.77311 -0.032123 3.19469e-20)
(0.790947 -0.0296984 7.37722e-20)
(0.807571 -0.027436 3.56379e-20)
(0.823071 -0.0253052 6.29236e-20)
(0.837443 -0.0233071 3.28512e-20)
(0.0106625 -0.0459022 -2.26539e-20)
(0.0446095 -0.101726 3.58274e-20)
(0.0987776 -0.129965 -1.13099e-19)
(0.158033 -0.139722 8.88633e-20)
(0.217343 -0.138568 2.17682e-20)
(0.274221 -0.132063 5.12548e-21)
(0.327536 -0.123611 -6.7483e-20)
(0.377099 -0.114896 -4.53122e-20)
(0.423068 -0.106572 7.92108e-20)
(0.465695 -0.0988131 -3.16421e-20)
(0.505235 -0.0916225 -2.48905e-21)
(0.541927 -0.0849629 1.32781e-19)
(0.575988 -0.0787925 4.29967e-20)
(0.607621 -0.0730719 -2.62364e-21)
(0.637009 -0.0677653 -2.56723e-20)
(0.664322 -0.0628397 -1.09779e-19)
(0.689715 -0.0582652 -1.09012e-20)
(0.713331 -0.0540142 -9.5693e-20)
(0.735301 -0.0500616 -9.02497e-20)
(0.755746 -0.0463844 1.03385e-20)
(0.774774 -0.0429627 -3.71611e-20)
(0.792491 -0.0397807 1.33947e-20)
(0.809011 -0.0368155 -4.34195e-20)
(0.824419 -0.0340259 -1.37321e-19)
(0.838659 -0.0314182 -2.02068e-20)
(0.0131829 -0.0571938 -3.65804e-20)
(0.0500993 -0.126909 1.3069e-19)
(0.105687 -0.162252 -1.65104e-19)
(0.165388 -0.174514 -5.97799e-20)
(0.224581 -0.173105 -4.68043e-20)
(0.281074 -0.164965 -4.82241e-20)
(0.333911 -0.154364 2.48899e-19)
(0.38299 -0.143429 -8.89142e-20)
(0.428502 -0.13299 -8.93446e-20)
(0.470706 -0.123267 1.28751e-19)
(0.509859 -0.114268 -1.28068e-19)
(0.546195 -0.105943 -6.7436e-20)
(0.579931 -0.0982387 -7.93299e-20)
(0.611264 -0.091105 4.97316e-20)
(0.640378 -0.0844955 9.93799e-21)
(0.667438 -0.0783679 -2.27559e-19)
(0.692599 -0.0726836 9.57151e-20)
(0.716002 -0.0674074 -6.93563e-20)
(0.737776 -0.0625071 1.61791e-19)
(0.75804 -0.057953 6.17986e-20)
(0.7769 -0.0537199 -5.5725e-20)
(0.794461 -0.049787 -9.2913e-20)
(0.810847 -0.0461242 -1.45515e-20)
(0.826138 -0.0426806 1.12658e-19)
(0.840208 -0.039471 7.63505e-20)
(0.0162726 -0.0682721 1.42184e-19)
(0.0568364 -0.151671 4.31206e-20)
(0.11417 -0.194056 9.91609e-20)
(0.174419 -0.208831 9.36564e-20)
(0.233468 -0.207203 -6.5588e-20)
(0.289485 -0.19747 1.1226e-19)
(0.341731 -0.18476 6.88055e-20)
(0.39021 -0.171638 3.4401e-19)
(0.435156 -0.159111 -1.48414e-20)
(0.476839 -0.147451 2.3045e-21)
(0.515513 -0.136666 2.35376e-19)
(0.55141 -0.126697 7.43345e-20)
(0.584744 -0.117478 9.24906e-20)
(0.615708 -0.108949 -1.71898e-19)
(0.644484 -0.101052 -4.68277e-20)
(0.671234 -0.0937373 1.25536e-19)
(0.69611 -0.0869565 1.30597e-19)
(0.719251 -0.0806672 -3.33692e-20)
(0.740785 -0.07483 -1.31027e-19)
(0.760828 -0.069409 2.77979e-20)
(0.779482 -0.0643736 1.56361e-20)
(0.796854 -0.059698 7.06753e-20)
(0.813077 -0.0553444 8.50563e-20)
(0.828224 -0.0512525 -6.74864e-20)
(0.842089 -0.0474508 -4.43753e-20)
(0.019915 -0.0790916 -7.59508e-20)
(0.0647903 -0.175922 -8.48678e-20)
(0.124192 -0.22527 6.49844e-20)
(0.185095 -0.24257 1.30505e-19)
(0.243977 -0.240769 -2.02111e-20)
(0.299429 -0.229495 -1.49387e-19)
(0.350973 -0.214722 -2.0955e-19)
(0.398741 -0.199453 -2.73967e-19)
(0.443014 -0.184874 -4.58105e-20)
(0.484076 -0.171308 -6.26472e-20)
(0.522181 -0.158765 -7.20217e-20)
(0.557558 -0.147178 -2.54918e-19)
(0.590415 -0.136468 1.36313e-20)
(0.620943 -0.126565 2.97539e-19)
(0.649318 -0.117401 -2.05945e-19)
(0.675701 -0.108916 -7.75009e-20)
(0.70024 -0.101054 -2.37446e-19)
(0.723072 -0.0937665 9.49653e-20)
(0.744322 -0.0870057 1.00922e-19)
(0.764104 -0.0807298 -2.78556e-19)
(0.782516 -0.074903 8.82764e-20)
(0.799664 -0.0694947 1.30622e-19)
(0.815694 -0.0644585 3.19702e-20)
(0.830671 -0.0597255 9.93514e-20)
(0.844299 -0.0553429 -1.67446e-20)
(0.0240906 -0.0896082 -1.9201e-20)
(0.0739243 -0.199575 2.90848e-20)
(0.135714 -0.255794 -6.04767e-21)
(0.197378 -0.27563 2.26376e-19)
(0.256073 -0.27371 1.75931e-19)
(0.310878 -0.260957 3.2871e-20)
(0.361613 -0.244176 7.94652e-20)
(0.408559 -0.226807 1.48486e-19)
(0.452055 -0.210218 3.45698e-20)
(0.4924 -0.194782 1.32646e-20)
(0.529848 -0.180515 1.36038e-19)
(0.564623 -0.167339 -5.6673e-20)
(0.59693 -0.155167 -4.22868e-20)
(0.626954 -0.143914 -2.16462e-19)
(0.654867 -0.133505 7.55891e-21)
(0.680828 -0.123871 1.21087e-19)
(0.704979 -0.114948 1.26888e-20)
(0.727455 -0.106679 -4.6804e-20)
(0.748378 -0.0990097 -1.85158e-19)
(0.767859 -0.091893 1.33622e-19)
(0.785993 -0.0852878 -3.3113e-19)
(0.802886 -0.0791584 -1.3132e-19)
(0.818693 -0.0734493 9.36313e-20)
(0.833476 -0.0680834 -1.79056e-19)
(0.846833 -0.063133 -9.75797e-20)
(0.0287766 -0.099779 -1.8364e-20)
(0.0841957 -0.222542 -1.06246e-19)
(0.148688 -0.285527 -2.8238e-19)
(0.211223 -0.307913 -3.54612e-19)
(0.269716 -0.305936 -2.05332e-19)
(0.323796 -0.291772 1.39808e-19)
(0.373619 -0.273048 -3.37076e-19)
(0.419635 -0.253634 -3.45373e-20)
(0.462253 -0.235081 1.92727e-19)
(0.501787 -0.217818 -2.16648e-20)
(0.538492 -0.201866 -3.27006e-19)
(0.572588 -0.187137 3.34625e-19)
(0.604272 -0.173532 1.8296e-19)
(0.633727 -0.160959 3.76748e-20)
(0.661119 -0.149331 2.80486e-19)
(0.686602 -0.138572 1.72524e-19)
(0.710315 -0.128609 -2.87114e-20)
(0.73239 -0.119377 3.32201e-19)
(0.752945 -0.110818 -2.8427e-20)
(0.772087 -0.102877 1.44199e-19)
(0.789908 -0.095508 1.72223e-19)
(0.806511 -0.0886708 -1.51215e-19)
(0.822068 -0.0823 -1.63193e-19)
(0.836632 -0.0763104 1.23264e-19)
(0.849687 -0.0708068 -1.62746e-19)
(0.0339474 -0.109563 2.40244e-19)
(0.0955564 -0.244742 -1.69326e-19)
(0.163061 -0.314372 1.85923e-20)
(0.226581 -0.339324 -6.1959e-20)
(0.284863 -0.337357 -5.82625e-20)
(0.338144 -0.321864 -2.75038e-19)
(0.386957 -0.301267 1.97686e-19)
(0.431941 -0.27987 3.52409e-19)
(0.47358 -0.259407 -1.71914e-19)
(0.512212 -0.240365 -1.55551e-19)
(0.54809 -0.222769 5.08346e-19)
(0.58143 -0.206525 -3.45226e-19)
(0.612423 -0.191524 -5.00083e-19)
(0.641245 -0.177663 -2.93785e-20)
(0.668057 -0.164846 7.75048e-20)
(0.693009 -0.152987 -2.23899e-19)
(0.716236 -0.142009 9.94827e-20)
(0.737864 -0.131838 -4.24069e-19)
(0.75801 -0.122408 3.58279e-19)
(0.776777 -0.11366 -6.17723e-20)
(0.79425 -0.105544 3.10865e-20)
(0.810533 -0.0980141 9.79813e-20)
(0.82581 -0.0909941 9.14319e-20)
(0.840132 -0.0843913 -7.16954e-20)
(0.852856 -0.0783502 -1.47466e-20)
(0.0395742 -0.11892 -1.48829e-19)
(0.107952 -0.266094 1.07387e-19)
(0.178773 -0.342236 -7.80488e-20)
(0.243395 -0.369769 2.8734e-19)
(0.301464 -0.367889 6.60186e-20)
(0.353879 -0.351152 -2.9639e-20)
(0.401588 -0.328763 6.58752e-20)
(0.44544 -0.305451 1.06552e-19)
(0.486006 -0.283138 -2.96609e-20)
(0.523646 -0.262368 1.75826e-19)
(0.558617 -0.243177 -3.21066e-19)
(0.591127 -0.225462 7.35688e-20)
(0.62136 -0.209104 1.78676e-19)
(0.649487 -0.19399 1.73476e-19)
(0.675664 -0.180016 -2.17379e-19)
(0.700034 -0.167089 -1.07866e-19)
(0.722727 -0.155121 -4.33467e-20)
(0.743866 -0.144035 3.47259e-19)
(0.763564 -0.133757 -3.45081e-19)
(0.781919 -0.124222 1.07775e-19)
(0.79901 -0.115377 4.88507e-20)
(0.814942 -0.107171 3.3471e-20)
(0.829913 -0.0995156 3.56101e-20)
(0.843969 -0.092311 -1.18775e-19)
(0.856335 -0.0857495 1.88764e-19)
(0.0456259 -0.127814 5.68378e-20)
(0.121325 -0.286522 -2.15301e-19)
(0.195758 -0.369029 3.19351e-19)
(0.261602 -0.399158 -1.29295e-19)
(0.319463 -0.397448 -6.30685e-20)
(0.370953 -0.379564 1.02775e-19)
(0.417469 -0.35547 -2.96564e-19)
(0.460095 -0.330318 -7.55827e-20)
(0.499495 -0.306219 -2.51129e-20)
(0.53606 -0.28378 -2.68467e-19)
(0.570045 -0.263045 1.06554e-19)
(0.601652 -0.243906 -1.0325e-19)
(0.631061 -0.226234 1.1249e-19)
(0.658434 -0.209907 6.09282e-21)
(0.683921 -0.194812 1.12419e-19)
(0.707658 -0.180847 3.72969e-19)
(0.729772 -0.16792 -7.35955e-20)
(0.750381 -0.155944 -2.71811e-19)
(0.769592 -0.144842 9.30491e-20)
(0.7875 -0.134543 -4.19023e-19)
(0.804178 -0.124989 2.23837e-19)
(0.819728 -0.116124 5.90003e-20)
(0.834366 -0.107849 9.5738e-20)
(0.848134 -0.100055 -1.93102e-21)
(0.860118 -0.0929909 8.36864e-20)
(0.0520685 -0.13621 1.46848e-19)
(0.135609 -0.305952 2.27734e-19)
(0.213946 -0.394662 1.09717e-19)
(0.281135 -0.427404 -1.0865e-19)
(0.338801 -0.425954 -3.12367e-20)
(0.389313 -0.407027 -1.82924e-20)
(0.434555 -0.381322 -7.1141e-20)
(0.475864 -0.354412 3.39681e-19)
(0.514011 -0.328597 -1.03908e-19)
(0.549418 -0.304551 2.2822e-19)
(0.582342 -0.28233 7.40164e-20)
(0.612979 -0.261818 1.05239e-19)
(0.641501 -0.242878 2.10447e-19)
(0.668062 -0.225379 -4.1778e-19)
(0.692806 -0.209201 -2.25939e-19)
(0.715863 -0.194234 -6.15408e-20)
(0.737355 -0.180379 -1.77297e-19)
(0.757393 -0.167543 2.45702e-19)
(0.77608 -0.155644 5.9374e-20)
(0.793508 -0.144603 2.62441e-19)
(0.809743 -0.134362 -9.97999e-20)
(0.824883 -0.124859 -2.06819e-19)
(0.839161 -0.11598 -9.31282e-20)
(0.852619 -0.107609 1.64646e-19)
(0.864198 -0.100061 -2.01901e-19)
(0.0588656 -0.144075 3.84337e-20)
(0.150735 -0.324317 -7.00783e-22)
(0.233258 -0.419056 -1.41371e-19)
(0.301922 -0.454425 -2.42419e-19)
(0.359412 -0.453329 1.62274e-19)
(0.408902 -0.43347 -1.49306e-19)
(0.452795 -0.406257 1.19677e-19)
(0.492703 -0.377676 -4.59304e-19)
(0.529513 -0.350222 3.15667e-19)
(0.563684 -0.324637 -6.71721e-20)
(0.595475 -0.300988 -2.77705e-19)
(0.625077 -0.279158 3.26122e-20)
(0.652651 -0.259 -2.90831e-20)
(0.678346 -0.240376 3.34154e-19)
(0.702297 -0.223156 2.71492e-19)
(0.724629 -0.207224 1.15095e-20)
(0.745456 -0.192475 2.7619e-19)
(0.764884 -0.17881 -9.39589e-20)
(0.783014 -0.16614 1.32958e-19)
(0.799929 -0.154385 -1.6269e-19)
(0.81569 -0.143479 2.09919e-19)
(0.830393 -0.133358 -1.1507e-19)
(0.844286 -0.123893 9.45299e-20)
(0.857415 -0.114961 -1.29202e-19)
(0.868569 -0.106947 8.09254e-21)
(0.0659787 -0.151378 -2.61169e-19)
(0.166629 -0.341551 -5.04527e-20)
(0.253611 -0.44213 1.43362e-19)
(0.323882 -0.480143 1.72937e-19)
(0.381225 -0.479501 -1.16091e-19)
(0.429658 -0.458829 4.29135e-19)
(0.472135 -0.430217 -6.01725e-19)
(0.510563 -0.400058 -1.03577e-19)
(0.545958 -0.371045 -1.85945e-19)
(0.578819 -0.343991 -2.22092e-19)
(0.609409 -0.318981 -1.32985e-19)
(0.637913 -0.295891 9.515e-20)
(0.664484 -0.274569 -3.38896e-21)
(0.68926 -0.254866 4.43801e-20)
(0.712371 -0.236648 1.29034e-19)
(0.733934 -0.219792 -2.81922e-19)
(0.754056 -0.204184 -5.5769e-19)
(0.772839 -0.189723 -2.54378e-20)
(0.790376 -0.176313 -1.7477e-19)
(0.806749 -0.163869 8.74764e-20)
(0.822008 -0.152323 -1.07881e-19)
(0.836247 -0.141607 5.90602e-19)
(0.849731 -0.131576 -2.68726e-19)
(0.86251 -0.122096 -1.58691e-19)
(0.873222 -0.113637 1.06798e-19)
(0.0733671 -0.158093 1.46035e-19)
(0.183214 -0.357595 2.41307e-19)
(0.274918 -0.463812 -2.25123e-19)
(0.346933 -0.504481 -1.55642e-19)
(0.404168 -0.504399 -7.21784e-20)
(0.451518 -0.48304 -2.93743e-19)
(0.492519 -0.453144 3.11254e-19)
(0.529394 -0.421508 2.82275e-19)
(0.563301 -0.391021 1.85605e-19)
(0.594781 -0.362575 4.11307e-19)
(0.624107 -0.33627 -7.11441e-20)
(0.651454 -0.311982 2.94453e-20)
(0.676967 -0.289551 -5.35931e-19)
(0.700776 -0.268821 -2.15528e-19)
(0.723002 -0.249651 -1.53168e-19)
(0.743754 -0.231912 5.35501e-20)
(0.763134 -0.215486 2.55383e-19)
(0.781236 -0.200263 1.97702e-19)
(0.79815 -0.186144 2.20602e-19)
(0.813951 -0.17304 -1.53526e-19)
(0.828683 -0.160881 -2.73775e-19)
(0.842433 -0.149593 -2.97785e-19)
(0.855485 -0.139015 2.69632e-19)
(0.867896 -0.129003 -1.07597e-19)
(0.87815 -0.120117 -1.4675e-19)
(0.0809882 -0.164195 3.33975e-19)
(0.200406 -0.372395 -1.85297e-19)
(0.297086 -0.484034 3.17332e-19)
(0.370985 -0.527371 -3.85322e-19)
(0.428161 -0.527957 3.88762e-19)
(0.474412 -0.506043 1.17637e-19)
(0.513885 -0.474986 2.14411e-19)
(0.549142 -0.441977 -1.22187e-19)
(0.581492 -0.410107 2.01914e-19)
(0.611528 -0.380347 -2.22511e-19)
(0.639529 -0.352819 2.84244e-19)
(0.665664 -0.327399 2.01263e-19)
(0.690068 -0.303917 7.02283e-21)
(0.712864 -0.282214 2.93684e-19)
(0.734162 -0.262141 -9.94092e-21)
(0.754065 -0.243564 2.77149e-19)
(0.772667 -0.226358 1.5111e-20)
(0.790057 -0.21041 2.83836e-19)
(0.806318 -0.195616 -9.60057e-20)
(0.821519 -0.181882 -3.96609e-19)
(0.835698 -0.169136 3.73573e-19)
(0.848937 -0.157302 -1.75026e-19)
(0.861535 -0.1462 -1.85052e-19)
(0.873561 -0.135672 9.03224e-20)
(0.883345 -0.126377 -3.21511e-20)
(0.0887977 -0.169663 -1.73601e-19)
(0.218118 -0.3859 5.15917e-20)
(0.320016 -0.502734 -1.07609e-19)
(0.395945 -0.548746 3.11599e-19)
(0.453121 -0.550114 -4.75694e-19)
(0.498268 -0.527783 -3.48016e-20)
(0.536172 -0.495693 -3.58052e-19)
(0.569751 -0.461421 1.82207e-19)
(0.600481 -0.428263 -1.24525e-19)
(0.629012 -0.397273 -1.56865e-19)
(0.655632 -0.368597 -1.50497e-19)
(0.680505 -0.34211 -4.43386e-19)
(0.703754 -0.317641 1.23167e-19)
(0.725493 -0.29502 9.99811e-20)
(0.745824 -0.274095 7.88035e-20)
(0.764842 -0.254725 -4.76226e-21)
(0.782634 -0.236781 1.54571e-19)
(0.79928 -0.220147 -1.44206e-19)
(0.814859 -0.204712 1.78293e-19)
(0.829436 -0.19038 -5.89641e-20)
(0.84304 -0.177076 8.96994e-20)
(0.855745 -0.164721 -8.2722e-21)
(0.867868 -0.153118 4.26407e-19)
(0.879494 -0.14209 -3.92154e-20)
(0.888799 -0.132406 2.21063e-22)
(0.09675 -0.174479 -1.87368e-19)
(0.236262 -0.398068 1.25508e-19)
(0.343606 -0.519854 8.20197e-20)
(0.421715 -0.568548 6.52276e-20)
(0.47896 -0.570813 1.98519e-19)
(0.52301 -0.548209 3.17401e-19)
(0.559311 -0.515219 1.13636e-19)
(0.591162 -0.479799 -3.7633e-19)
(0.620217 -0.445451 1.24444e-19)
(0.647188 -0.413317 2.50369e-19)
(0.672376 -0.383571 1.37298e-19)
(0.695937 -0.356089 4.50232e-19)
(0.717989 -0.330695 4.57591e-19)
(0.738631 -0.307215 -3.41521e-19)
(0.757959 -0.28549 -7.17397e-20)
(0.776058 -0.265375 -6.02733e-20)
(0.793008 -0.246738 -5.34349e-19)
(0.808883 -0.229457 -7.93384e-20)
(0.823755 -0.213418 -4.73068e-19)
(0.837684 -0.19852 5.57332e-19)
(0.85069 -0.184688 -2.56765e-19)
(0.862843 -0.171841 2.1889e-19)
(0.874473 -0.15976 -3.36037e-19)
(0.885684 -0.14825 4.82099e-19)
(0.894504 -0.138192 -1.00085e-19)
(0.104798 -0.178628 5.54557e-20)
(0.254743 -0.408859 7.92132e-20)
(0.367749 -0.535343 6.59253e-20)
(0.448193 -0.586721 -1.56351e-20)
(0.505588 -0.590001 3.8795e-20)
(0.548559 -0.567271 -1.98285e-19)
(0.583235 -0.533522 6.69914e-20)
(0.613314 -0.497072 1.43498e-19)
(0.640642 -0.461637 6.54239e-20)
(0.666004 -0.42845 -7.60042e-21)
(0.689713 -0.397714 -3.90321e-19)
(0.711921 -0.36931 3.26457e-19)
(0.732735 -0.343057 -4.7977e-19)
(0.752245 -0.318777 1.39288e-19)
(0.770536 -0.296307 2.1669e-19)
(0.787686 -0.275498 -1.8389e-19)
(0.803766 -0.256212 1.9762e-19)
(0.818843 -0.238324 3.14089e-19)
(0.832985 -0.221718 1.28084e-19)
(0.846244 -0.206289 -1.07847e-19)
(0.858633 -0.191961 -1.57263e-19)
(0.870214 -0.17865 -3.02118e-19)
(0.881334 -0.166116 -1.48107e-20)
(0.89212 -0.154143 -1.95676e-19)
(0.900451 -0.143727 6.34811e-20)
(0.112894 -0.182098 2.34521e-20)
(0.273467 -0.418241 -1.63423e-19)
(0.392337 -0.549156 -1.89979e-19)
(0.475273 -0.603215 9.48597e-20)
(0.532909 -0.60763 -7.98739e-20)
(0.574833 -0.584927 2.31124e-19)
(0.607871 -0.550562 -5.97326e-20)
(0.636143 -0.513208 -5.26502e-20)
(0.661702 -0.476791 1.17674e-19)
(0.68541 -0.442643 3.02063e-20)
(0.707598 -0.411 4.43538e-19)
(0.728415 -0.381748 -1.53183e-19)
(0.747955 -0.354705 2.85681e-20)
(0.7663 -0.329687 5.12711e-21)
(0.783524 -0.306529 1.40076e-20)
(0.799697 -0.285075 5.20961e-21)
(0.814881 -0.265187 8.78019e-21)
(0.829138 -0.246736 -2.22072e-19)
(0.842527 -0.229602 1.87035e-19)
(0.855096 -0.213677 -1.63533e-19)
(0.866851 -0.198884 2.35234e-19)
(0.877844 -0.185139 1.09048e-19)
(0.888438 -0.172181 -2.68072e-20)
(0.898789 -0.159761 1.6564e-19)
(0.906635 -0.149002 5.37264e-20)
(0.120989 -0.184881 1.36214e-19)
(0.292334 -0.426189 2.56741e-20)
(0.417255 -0.561254 1.6925e-19)
(0.502845 -0.617987 1.52337e-19)
(0.560826 -0.623657 -2.34266e-19)
(0.601746 -0.601138 -1.88321e-19)
(0.633145 -0.566305 7.17299e-20)
(0.659585 -0.528174 5.72631e-20)
(0.683338 -0.490885 4.87876e-20)
(0.705353 -0.455871 -4.55375e-19)
(0.725984 -0.423406 -1.99795e-19)
(0.745375 -0.393383 -2.49305e-19)
(0.76361 -0.365619 2.01024e-20)
(0.78076 -0.339928 -5.29208e-20)
(0.796891 -0.316138 -1.21408e-19)
(0.812062 -0.294093 2.9697e-19)
(0.826328 -0.27365 -4.5695e-19)
(0.839742 -0.254679 -4.88136e-20)
(0.852359 -0.237056 1.41581e-19)
(0.86422 -0.220671 2.04532e-19)
(0.875325 -0.205448 1.07384e-19)
(0.885716 -0.1913 -2.32073e-19)
(0.895771 -0.177946 9.5232e-21)
(0.905681 -0.165101 -1.17296e-19)
(0.913047 -0.15401 -1.37707e-19)
(0.129034 -0.186972 -9.31541e-20)
(0.311244 -0.432682 -1.15582e-20)
(0.442385 -0.571607 -8.42116e-21)
(0.530795 -0.630999 -4.87588e-20)
(0.589238 -0.638044 1.78666e-19)
(0.62921 -0.615868 -2.66486e-19)
(0.658982 -0.58072 -8.97276e-22)
(0.683572 -0.541944 -2.44338e-19)
(0.70549 -0.503894 -1.22377e-20)
(0.72578 -0.468113 1.1093e-19)
(0.744822 -0.434912 -1.47361e-19)
(0.762757 -0.404198 4.61843e-19)
(0.77966 -0.375784 2.76285e-19)
(0.79559 -0.349483 1.2741e-19)
(0.810604 -0.32512 6.75728e-20)
(0.82475 -0.302537 -9.74472e-21)
(0.838078 -0.281589 2.84239e-19)
(0.850631 -0.262142 -9.91657e-20)
(0.862458 -0.244071 -3.87719e-19)
(0.873596 -0.227264 -1.11487e-19)
(0.884035 -0.211643 -2.51312e-19)
(0.893811 -0.197126 2.43339e-19)
(0.903316 -0.183409 5.52289e-20)
(0.912784 -0.170159 8.64945e-20)
(0.919683 -0.158747 4.79992e-19)
(0.13698 -0.188372 5.76383e-20)
(0.330096 -0.437707 -3.48604e-20)
(0.46761 -0.580187 -7.45051e-20)
(0.559007 -0.64222 -2.4016e-19)
(0.618039 -0.650758 -1.14429e-19)
(0.657136 -0.629088 2.56483e-19)
(0.685304 -0.593781 6.28502e-20)
(0.708036 -0.554495 4.72991e-20)
(0.728097 -0.515799 1.23469e-19)
(0.746636 -0.479349 5.34835e-20)
(0.764063 -0.445502 9.00758e-20)
(0.780516 -0.414175 -3.43104e-19)
(0.796063 -0.385184 -4.08803e-19)
(0.810753 -0.358339 -2.10255e-19)
(0.824629 -0.333463 1.00328e-19)
(0.837733 -0.310397 6.84237e-20)
(0.850104 -0.288992 -1.57297e-19)
(0.861779 -0.269115 4.26504e-20)
(0.872801 -0.250638 1.71814e-20)
(0.883202 -0.233446 -7.88392e-20)
(0.892964 -0.217463 1.09243e-19)
(0.902111 -0.202611 1.8498e-19)
(0.911055 -0.188564 1.18808e-19)
(0.920085 -0.174936 -1.52702e-19)
(0.92654 -0.163211 -4.80068e-19)
(0.144777 -0.189081 -3.71775e-20)
(0.348787 -0.441257 -9.00167e-20)
(0.492807 -0.586978 -4.90455e-20)
(0.587361 -0.651625 7.66221e-20)
(0.647124 -0.661774 -8.03435e-20)
(0.68543 -0.640773 -1.20813e-19)
(0.712029 -0.605465 -1.55257e-19)
(0.732907 -0.565807 1.40147e-20)
(0.751097 -0.526583 -1.37545e-19)
(0.767865 -0.489565 4.09067e-19)
(0.783655 -0.455161 -2.3387e-19)
(0.798608 -0.423303 1.35886e-19)
(0.81278 -0.393808 3.35043e-19)
(0.82621 -0.366485 2.3742e-19)
(0.838932 -0.341157 -3.94759e-19)
(0.850978 -0.317661 1.30023e-19)
(0.862378 -0.295851 6.48494e-20)
(0.873162 -0.275589 -4.13961e-20)
(0.883366 -0.256748 2.53076e-19)
(0.893017 -0.23921 -1.88588e-19)
(0.902091 -0.222901 2.88313e-20)
(0.910596 -0.207748 -2.24163e-19)
(0.91897 -0.19341 -2.50405e-19)
(0.927571 -0.179435 8.69798e-20)
(0.933617 -0.167406 1.76292e-19)
(0.152376 -0.189107 1.01666e-20)
(0.367213 -0.443333 6.85216e-20)
(0.517853 -0.591969 1.2834e-20)
(0.615736 -0.659195 4.60992e-20)
(0.676381 -0.671069 1.20924e-19)
(0.713997 -0.6509 8.02516e-20)
(0.739078 -0.615754 -4.41506e-20)
(0.758115 -0.575865 1.70238e-19)
(0.774428 -0.536231 -1.39794e-20)
(0.789411 -0.498748 -1.18219e-19)
(0.803548 -0.463878 2.79741e-19)
(0.816985 -0.43157 8.51276e-20)
(0.829768 -0.401645 -2.51479e-19)
(0.841925 -0.373911 -1.73436e-19)
(0.85348 -0.348192 2.2318e-19)
(0.864455 -0.324323 -2.32728e-19)
(0.874872 -0.302157 -9.18653e-20)
(0.884752 -0.281557 2.86216e-20)
(0.894126 -0.262394 1.66991e-20)
(0.903019 -0.24455 2.0478e-19)
(0.911396 -0.22795 -2.01438e-20)
(0.919247 -0.212532 3.69208e-20)
(0.927034 -0.197943 1.8878e-19)
(0.935224 -0.183662 1.32772e-19)
(0.940919 -0.171343 1.25821e-19)
(0.159728 -0.188459 -9.37127e-22)
(0.38527 -0.443942 -6.72182e-21)
(0.542623 -0.595155 1.85079e-21)
(0.644008 -0.664917 4.22698e-20)
(0.705699 -0.678626 -6.92062e-20)
(0.742742 -0.659456 -1.45303e-20)
(0.766366 -0.624636 -9.6088e-20)
(0.783587 -0.584657 9.18557e-20)
(0.798025 -0.544733 -1.88731e-19)
(0.811217 -0.50689 -8.594e-20)
(0.823692 -0.471645 -2.65789e-20)
(0.835601 -0.438969 5.55654e-21)
(0.846985 -0.408688 4.73092e-20)
(0.857859 -0.380612 4.06772e-20)
(0.868237 -0.354562 -4.25383e-20)
(0.878132 -0.330376 -5.88798e-20)
(0.887556 -0.307905 4.16667e-19)
(0.896525 -0.287013 -2.35693e-20)
(0.90506 -0.267571 6.11486e-20)
(0.913185 -0.24946 6.30639e-20)
(0.92086 -0.232606 -2.8198e-20)
(0.928046 -0.216958 1.96877e-19)
(0.935222 -0.202165 -9.46501e-20)
(0.943017 -0.187638 -1.11688e-19)
(0.948464 -0.175053 2.4822e-19)
(0.166786 -0.187152 1.78783e-20)
(0.402854 -0.443097 2.04818e-20)
(0.566991 -0.596541 -2.5145e-20)
(0.67205 -0.668787 -1.11276e-20)
(0.734965 -0.684437 6.01303e-20)
(0.771565 -0.666429 -7.60748e-20)
(0.79381 -0.632099 9.25192e-20)
(0.80925 -0.592176 -5.03509e-20)
(0.821825 -0.552085 8.05803e-20)
(0.833225 -0.513984 -8.42211e-20)
(0.844034 -0.478457 -1.8244e-19)
(0.854411 -0.445495 -9.84401e-20)
(0.864389 -0.414933 -3.97874e-20)
(0.873974 -0.386581 -5.0525e-20)
(0.883169 -0.360263 3.97221e-20)
(0.891977 -0.335815 3.32726e-20)
(0.900403 -0.31309 -3.19612e-19)
(0.908453 -0.291952 -9.74593e-20)
(0.916142 -0.272274 -2.84094e-19)
(0.923493 -0.253935 -7.23821e-21)
(0.930463 -0.236862 1.75807e-19)
(0.936978 -0.221013 -2.21086e-19)
(0.943497 -0.206048 -2.75472e-19)
(0.950892 -0.19133 -3.19933e-20)
(0.956274 -0.17856 -2.42412e-19)
(0.173503 -0.185201 -6.99238e-20)
(0.419864 -0.44082 4.30391e-20)
(0.590831 -0.596138 5.3475e-20)
(0.699736 -0.670806 1.52124e-20)
(0.764062 -0.688497 -4.76859e-21)
(0.800367 -0.671813 6.6058e-21)
(0.821325 -0.63814 -1.08379e-20)
(0.835032 -0.598418 -8.37864e-21)
(0.845764 -0.558282 6.32043e-20)
(0.855379 -0.52003 5.44722e-20)
(0.864523 -0.484311 1.38858e-19)
(0.873367 -0.451147 4.37844e-21)
(0.881938 -0.420377 5.17735e-20)
(0.890232 -0.391817 5.76444e-21)
(0.898241 -0.365291 -1.21891e-19)
(0.90596 -0.340637 1.83581e-19)
(0.913384 -0.317708 -6.51148e-20)
(0.920511 -0.296371 1.30376e-19)
(0.927349 -0.276498 1.96856e-19)
(0.933918 -0.257972 -2.82621e-20)
(0.940184 -0.240717 -3.54212e-19)
(0.946031 -0.224706 1.83487e-19)
(0.951838 -0.209632 -2.37204e-21)
(0.958756 -0.194884 -1.44871e-19)
(0.9644 -0.182232 -7.92626e-20)
(0.179833 -0.182629 2.93274e-20)
(0.436197 -0.43714 -6.2425e-20)
(0.614016 -0.593964 -1.33013e-19)
(0.726937 -0.670981 -2.65368e-20)
(0.792873 -0.690808 1.34839e-20)
(0.829046 -0.675608 5.56666e-21)
(0.848825 -0.642757 -2.15894e-20)
(0.860858 -0.603383 -1.74595e-20)
(0.869778 -0.563327 -3.59251e-20)
(0.877621 -0.525027 -7.44444e-22)
(0.885107 -0.48921 -1.12709e-19)
(0.892422 -0.455923 -5.19998e-20)
(0.89959 -0.425021 5.31639e-20)
(0.906595 -0.39632 -8.40886e-20)
(0.913419 -0.369647 5.18946e-20)
(0.920049 -0.344842 -6.74163e-20)
(0.926471 -0.321759 7.5184e-20)
(0.932674 -0.300267 1.24427e-19)
(0.938658 -0.280243 -1.92237e-19)
(0.94444 -0.261567 2.16009e-19)
(0.950002 -0.244162 -5.35956e-20)
(0.955212 -0.227996 7.18044e-20)
(0.960273 -0.212779 5.38673e-20)
(0.966454 -0.197911 4.29521e-19)
(0.972853 -0.1852 -5.79413e-20)
(0.185733 -0.17946 -4.49706e-21)
(0.451754 -0.432091 6.70942e-20)
(0.636421 -0.590045 1.6705e-19)
(0.753523 -0.669329 -3.8707e-20)
(0.82128 -0.691376 -9.41086e-21)
(0.8575 -0.677817 2.92858e-20)
(0.876223 -0.645955 2.60141e-20)
(0.886656 -0.607077 3.07587e-20)
(0.893801 -0.567223 1.02595e-20)
(0.899896 -0.528981 7.37867e-20)
(0.905736 -0.493155 7.62623e-20)
(0.911532 -0.459829 6.76081e-20)
(0.917303 -0.428866 -6.25062e-20)
(0.923024 -0.400091 9.01618e-20)
(0.928669 -0.373331 4.61198e-20)
(0.934213 -0.348429 1.71525e-20)
(0.939634 -0.325243 3.11265e-20)
(0.944916 -0.303641 -3.62802e-19)
(0.950046 -0.283505 -7.44144e-21)
(0.955037 -0.264719 3.10117e-20)
(0.95989 -0.247202 1.88625e-19)
(0.964489 -0.230916 -5.95898e-20)
(0.968832 -0.215673 -1.02957e-20)
(0.973774 -0.20139 -2.31401e-19)
(0.980446 -0.189885 -1.69428e-20)
(0.191164 -0.175723 1.09431e-19)
(0.466436 -0.425715 -1.13402e-19)
(0.657921 -0.584416 -1.66332e-19)
(0.779365 -0.665873 1.4484e-19)
(0.849163 -0.690217 -6.48134e-21)
(0.885626 -0.678451 7.11527e-21)
(0.903433 -0.647742 2.48242e-20)
(0.91235 -0.609507 -1.83723e-21)
(0.917772 -0.56998 -1.71603e-20)
(0.922145 -0.5319 -2.65837e-20)
(0.92636 -0.496156 -4.61365e-20)
(0.930651 -0.462869 2.9449e-21)
(0.935036 -0.431919 -5.56549e-20)
(0.939484 -0.403134 -5.91843e-21)
(0.943957 -0.376347 -8.60524e-20)
(0.948421 -0.351402 -3.02163e-20)
(0.952848 -0.328161 1.71361e-19)
(0.957212 -0.306494 1.00225e-19)
(0.961493 -0.286286 3.74333e-20)
(0.965692 -0.267427 -6.14423e-20)
(0.969821 -0.249831 2.23358e-20)
(0.973808 -0.233449 1.05619e-19)
(0.977528 -0.218175 -1.7371e-20)
(0.981339 -0.204161 1.09138e-19)
(0.986884 -0.192014 5.20951e-20)
(0.196102 -0.171455 8.50403e-20)
(0.480142 -0.418052 9.12688e-20)
(0.678392 -0.577118 1.47105e-19)
(0.804334 -0.660641 -8.77197e-20)
(0.876402 -0.687349 2.44584e-20)
(0.913319 -0.677523 1.25928e-19)
(0.930366 -0.648131 -1.60978e-20)
(0.937869 -0.610685 -5.0728e-20)
(0.941625 -0.571609 -1.0628e-20)
(0.944314 -0.533794 -6.99996e-21)
(0.946928 -0.498221 4.44672e-20)
(0.949733 -0.465053 2.45115e-22)
(0.952749 -0.434186 2.32979e-20)
(0.955937 -0.405456 -6.9455e-20)
(0.95925 -0.378699 4.55194e-20)
(0.962645 -0.353765 -6.47137e-20)
(0.966085 -0.330516 -8.17917e-20)
(0.969537 -0.308828 1.40799e-19)
(0.972975 -0.288586 7.47473e-20)
(0.976387 -0.269687 5.57314e-20)
(0.979787 -0.25204 -8.85209e-20)
(0.983152 -0.235573 -1.42533e-19)
(0.986332 -0.220229 -6.89064e-20)
(0.989313 -0.206307 6.47635e-20)
(0.993613 -0.193706 1.0792e-19)
(0.200538 -0.166687 -2.5552e-20)
(0.492779 -0.409138 1.14238e-19)
(0.697708 -0.568203 -1.9795e-19)
(0.8283 -0.653672 -2.63596e-19)
(0.902876 -0.682798 -2.93211e-19)
(0.940476 -0.675053 6.56177e-20)
(0.956935 -0.647137 -2.70243e-20)
(0.963138 -0.610628 2.52635e-20)
(0.9653 -0.572125 -2.62516e-21)
(0.966349 -0.534678 2.05983e-20)
(0.967392 -0.499364 -1.82684e-20)
(0.968735 -0.466392 -2.30402e-21)
(0.970402 -0.435678 2.01132e-20)
(0.972348 -0.407065 4.32152e-20)
(0.974515 -0.380396 -1.51052e-20)
(0.976853 -0.355524 6.24959e-20)
(0.979318 -0.332315 -1.58803e-20)
(0.981869 -0.310646 -3.59438e-20)
(0.984473 -0.290408 7.83961e-20)
(0.987108 -0.271502 8.02054e-20)
(0.989786 -0.253832 5.33983e-20)
(0.992526 -0.237303 1.08234e-21)
(0.995202 -0.2219 -1.26522e-20)
(0.997584 -0.208062 5.43541e-20)
(1.00094 -0.195227 -4.96188e-20)
(0.204413 -0.161399 2.60071e-21)
(0.504283 -0.399026 -3.0002e-19)
(0.715754 -0.557745 3.66709e-19)
(0.851137 -0.64501 3.49368e-19)
(0.928465 -0.676596 1.82371e-19)
(0.96699 -0.671065 1.03812e-20)
(0.983052 -0.644782 -3.71913e-20)
(0.988084 -0.609355 -3.91751e-20)
(0.988733 -0.571548 5.54555e-20)
(0.988194 -0.53457 -8.84536e-20)
(0.987704 -0.4996 -7.28524e-21)
(0.987614 -0.4669 7.8065e-21)
(0.987956 -0.436406 -1.44417e-21)
(0.98868 -0.407972 1.74429e-20)
(0.989721 -0.381447 -2.69175e-20)
(0.991019 -0.356687 -5.27653e-20)
(0.992521 -0.333563 2.07675e-21)
(0.994183 -0.311956 -1.29653e-19)
(0.995965 -0.291759 -9.96104e-20)
(0.997838 -0.272876 -7.28937e-20)
(0.999811 -0.255214 -7.52226e-20)
(1.00193 -0.23866 2.47159e-20)