/*--------------------------------*- C++ -*----------------------------------*\
  =========                 |
  \\      /  F ield         | OpenFOAM: The Open Source CFD Toolbox
   \\    /   O peration     | Website:  https://openfoam.org
    \\  /    A nd           | Version:  7
     \\/     M anipulation  |
\*---------------------------------------------------------------------------*/
FoamFile
{
    version     2.0;
    format      ascii;
    class       volVectorField;
    location    "45";
    object      U;
}
// * * * * * * * * * * * * * * * * * * * * * * * * * * * * * * * * * * * * * //

dimensions      [0 1 -1 0 0 0 0];

internalField   nonuniform List<vector> 
1989
(
(1.24543 0.150537 5.33672e-19)
(1.24235 0.152933 -3.9976e-21)
(1.24198 0.162994 6.70435e-20)
(1.23909 0.155315 6.50239e-20)
(1.23881 0.165378 -2.34901e-20)
(1.23569 0.157698 -1.129e-20)
(1.23548 0.16777 2.16456e-20)
(1.23219 0.160091 6.38881e-20)
(1.23202 0.170177 1.17001e-19)
(1.2286 0.162498 -1.40852e-19)
(1.23262 0.178324 1.27288e-19)
(1.22847 0.172604 3.55232e-20)
(1.22493 0.164922 6.06699e-20)
(1.22903 0.180994 -7.36214e-21)
(1.22482 0.175054 -9.3519e-20)
(1.22117 0.167361 6.59623e-20)
(1.22533 0.183688 5.52914e-20)
(1.22107 0.177525 1.45116e-19)
(1.21733 0.169814 -8.30991e-20)
(1.22152 0.186407 -2.50332e-19)
(1.21722 0.180015 -1.4374e-19)
(1.2134 0.172278 9.89159e-20)
(1.22222 0.196004 1.62056e-20)
(1.21761 0.189147 9.75944e-20)
(1.21327 0.182523 2.46459e-20)
(1.20938 0.17475 -9.00988e-20)
(1.21823 0.198935 -1.23085e-20)
(1.21358 0.191905 4.7203e-20)
(1.20922 0.185043 1.23485e-19)
(1.20527 0.177227 -2.3843e-20)
(1.21412 0.201893 4.90366e-20)
(1.20944 0.194678 3.3082e-20)
(1.20506 0.187574 -1.69114e-19)
(1.20105 0.179703 -2.01762e-20)
(1.20987 0.204872 -2.86194e-20)
(1.20518 0.197459 -4.99124e-20)
(1.20078 0.190108 4.89702e-20)
(1.19673 0.182174 8.34232e-20)
(1.20549 0.207866 -8.00486e-20)
(1.20079 0.200243 1.65822e-20)
(1.19639 0.192643 6.53494e-20)
(1.19231 0.184636 -4.47948e-20)
(1.20097 0.210869 -6.5495e-20)
(1.19627 0.203024 2.51015e-20)
(1.19187 0.195172 -2.05396e-20)
(1.18777 0.187082 7.4229e-20)
(1.19631 0.213874 8.31254e-20)
(1.19162 0.205795 -8.30148e-20)
(1.18723 0.197689 -4.85177e-20)
(1.18311 0.189506 -1.3799e-20)
(1.19149 0.216872 6.38398e-20)
(1.18682 0.208549 -1.92307e-20)
(1.18246 0.200189 5.33988e-20)
(1.17834 0.191902 -1.05661e-20)
(1.18651 0.219856 -4.7796e-20)
(1.18188 0.211278 2.04027e-20)
(1.17756 0.202664 -5.69387e-20)
(1.17345 0.194262 2.06736e-20)
(1.18639 0.231778 1.70699e-20)
(1.18137 0.222816 1.98295e-20)
(1.1768 0.213975 -1.11878e-21)
(1.17253 0.205107 2.29631e-20)
(1.16843 0.19658 -1.20907e-20)
(1.18102 0.234995 -7.14218e-21)
(1.17607 0.225744 9.46884e-22)
(1.17156 0.216632 2.46177e-21)
(1.16735 0.207512 6.80871e-21)
(1.16329 0.198849 -4.19443e-21)
(1.17546 0.238176 -1.39325e-21)
(1.1706 0.228628 9.60036e-23)
(1.16617 0.219239 2.14778e-21)
(1.16204 0.209869 -3.2871e-21)
(1.15802 0.201059 1.76019e-21)
(1.16971 0.241309 4.61701e-22)
(1.16495 0.23146 7.63282e-22)
(1.16063 0.221787 -1.63497e-21)
(1.15659 0.21217 -3.01035e-21)
(1.15263 0.203202 4.56304e-21)
(1.16377 0.244383 -1.63363e-20)
(1.15913 0.234227 1.32161e-20)
(1.15493 0.224269 5.04652e-21)
(1.151 0.214406 2.30741e-21)
(1.14711 0.20527 -3.74885e-21)
(1.15764 0.247386 8.81468e-21)
(1.15314 0.23692 9.48873e-21)
(1.14907 0.226673 5.12676e-21)
(1.14527 0.216566 1.56673e-20)
(1.14148 0.207255 -1.08085e-20)
(1.14696 0.239528 -3.89682e-20)
(1.14305 0.22899 1.2777e-20)
(1.1394 0.218639 -3.51796e-20)
(1.13573 0.209146 4.06142e-21)
(1.1406 0.242038 4.47387e-21)
(1.13687 0.231208 -5.84928e-21)
(1.13339 0.220611 4.77309e-20)
(1.12986 0.210931 -1.56637e-20)
(1.13407 0.244443 4.41821e-20)
(1.13053 0.233319 -3.4935e-20)
(1.12723 0.22247 -1.08053e-20)
(1.25591 0.124566 0)
(1.25781 0.118609 0)
(1.2578 0.112768 0)
(1.25749 0.106869 0)
(1.25721 0.10093 0)
(1.25667 0.0950387 0)
(1.25571 0.0892335 0)
(1.25434 0.0835126 0)
(1.25263 0.0778722 0)
(1.25064 0.0723164 0)
(1.24838 0.0668514 0)
(1.24588 0.0614805 0)
(1.24317 0.0562045 0)
(1.25396 0.123687 0)
(1.25653 0.117824 0)
(1.25722 0.112145 0)
(1.25768 0.106494 0)
(1.25827 0.100824 0)
(1.25873 0.0951824 0)
(1.25885 0.0896081 0)
(1.2586 0.0841048 0)
(1.25804 0.0786668 0)
(1.2572 0.0732947 0)
(1.2561 0.0679938 0)
(1.25476 0.0627681 0)
(1.25318 0.0576198 0)
(1.25082 0.122377 0)
(1.25383 0.11665 0)
(1.25496 0.111113 0)
(1.25585 0.105651 0)
(1.25693 0.100191 0)
(1.25798 0.0947536 0)
(1.25875 0.089375 0)
(1.25922 0.084063 0)
(1.25942 0.0788114 0)
(1.25938 0.073617 0)
(1.25912 0.0684827 0)
(1.25862 0.0634118 0)
(1.2579 0.0584064 0)
(1.24705 0.120774 0)
(1.25033 0.115205 0)
(1.25177 0.109807 0)
(1.25293 0.104505 0)
(1.25429 0.0992235 0)
(1.25567 0.0939628 0)
(1.25683 0.0887535 0)
(1.25773 0.0836071 0)
(1.2584 0.0785193 0)
(1.25887 0.0734851 0)
(1.25914 0.0685053 0)
(1.25922 0.0635822 0)
(1.25909 0.0587177 0)
(1.24293 0.118939 0)
(1.24638 0.113546 0)
(1.24806 0.108295 0)
(1.2494 0.103148 0)
(1.25093 0.0980309 0)
(1.25251 0.0929344 0)
(1.25391 0.0878814 0)
(1.25508 0.0828857 0)
(1.25603 0.0779457 0)
(1.2568 0.0730567 0)
(1.25741 0.0682182 0)
(1.25784 0.0634319 0)
(1.2581 0.0586998 0)
(1.23858 0.116906 0)
(1.24215 0.111702 0)
(1.24401 0.106612 0)
(1.2455 0.101621 0)
(1.24716 0.096666 0)
(1.24887 0.09173 0)
(1.25043 0.0868295 0)
(1.25176 0.0819789 0)
(1.2529 0.0771795 0)
(1.25387 0.0724278 0)
(1.25468 0.0677227 0)
(1.25534 0.0630657 0)
(1.25584 0.0584589 0)
(1.23402 0.11469 0)
(1.23768 0.109685 0)
(1.2397 0.104767 0)
(1.24133 0.0999404 0)
(1.24308 0.0951505 0)
(1.24489 0.0903763 0)
(1.24657 0.0856298 0)
(1.24803 0.0809251 0)
(1.2493 0.0762656 0)
(1.25041 0.0716494 0)
(1.25137 0.0670755 0)
(1.25218 0.0625452 0)
(1.25284 0.0580609 0)
(1.22926 0.112293 0)
(1.23299 0.107495 0)
(1.23515 0.102762 0)
(1.23691 0.0981083 0)
(1.23876 0.0934889 0)
(1.24066 0.0888812 0)
(1.24243 0.0842932 0)
(1.244 0.0797386 0)
(1.24538 0.0752224 0)
(1.2466 0.0707442 0)
(1.24767 0.0663033 0)
(1.24859 0.0619012 0)
(1.24938 0.0575404 0)
(1.22435 0.109714 0)
(1.22813 0.105132 0)
(1.23042 0.100594 0)
(1.23229 0.0961227 0)
(1.23423 0.0916806 0)
(1.23621 0.087245 0)
(1.23807 0.0828215 0)
(1.23974 0.0784227 0)
(1.24121 0.074055 0)
(1.24253 0.0697193 0)
(1.24369 0.0654157 0)
(1.24472 0.0611457 0)
(1.2456 0.0569118 0)
(1.21939 0.106964 0)
(1.22318 0.102605 0)
(1.22559 0.0982685 0)
(1.22756 0.093987 0)
(1.22958 0.0897278 0)
(1.23162 0.0854697 0)
(1.23356 0.0812159 0)
(1.23531 0.0769785 0)
(1.23687 0.0727648 0)
(1.23827 0.0685768 0)
(1.23953 0.0644153 0)
(1.24064 0.060282 0)
(1.24161 0.0561797 0)
(1.21449 0.104062 0)
(1.21827 0.0999275 0)
(1.22075 0.0957986 0)
(1.22281 0.0917109 0)
(1.22489 0.0876385 0)
(1.22699 0.0835613 0)
(1.22899 0.0794816 0)
(1.23081 0.0754101 0)
(1.23244 0.071355 0)
(1.23391 0.0673193 0)
(1.23524 0.0633044 0)
(1.23643 0.0593123 0)
(1.23748 0.0553461 0)
(1.20971 0.101025 0)
(1.21345 0.0971175 0)
(1.216 0.0931982 0)
(1.21812 0.0893067 0)
(1.22024 0.0854231 0)
(1.22238 0.0815292 0)
(1.22443 0.0776261 0)
(1.2263 0.073724 0)
(1.228 0.069831 0)
(1.22953 0.0659512 0)
(1.23092 0.0620867 0)
(1.23218 0.0582399 0)
(1.2333 0.0544136 0)
(1.20509 0.0978714 0)
(1.20878 0.0941885 0)
(1.21136 0.0904793 0)
(1.21354 0.086785 0)
(1.21569 0.0830912 0)
(1.21786 0.0793819 0)
(1.21994 0.0756574 0)
(1.22185 0.0719269 0)
(1.22359 0.0681988 0)
(1.22518 0.0644779 0)
(1.22663 0.0607669 0)
(1.22794 0.0570684 0)
(1.22912 0.0533857 0)
(1.20062 0.0946113 0)
(1.20424 0.0911496 0)
(1.20684 0.0876497 0)
(1.20906 0.0841529 0)
(1.21124 0.0806493 0)
(1.21343 0.0771252 0)
(1.21553 0.0735805 0)
(1.21748 0.0700234 0)
(1.21926 0.0664626 0)
(1.22089 0.0629031 0)
(1.22238 0.0593482 0)
(1.22375 0.0558009 0)
(1.22498 0.0522646 0)
(1.19628 0.0912523 0)
(1.19982 0.0880074 0)
(1.20244 0.0847146 0)
(1.20469 0.0814146 0)
(1.20689 0.078101 0)
(1.20909 0.0747623 0)
(1.2112 0.0713981 0)
(1.21318 0.0680159 0)
(1.21499 0.0646241 0)
(1.21666 0.0612282 0)
(1.2182 0.0578318 0)
(1.2196 0.0544384 0)
(1.22088 0.0510512 0)
(1.19204 0.0878009 0)
(1.1955 0.0847672 0)
(1.19813 0.0816785 0)
(1.20039 0.0785735 0)
(1.20261 0.0754491 0)
(1.20482 0.0722954 0)
(1.20695 0.0691118 0)
(1.20894 0.0659053 0)
(1.21078 0.0626839 0)
(1.21249 0.0594532 0)
(1.21406 0.0562175 0)
(1.2155 0.0529802 0)
(1.21682 0.0497448 0)
(1.18791 0.0842636 0)
(1.19128 0.0814353 0)
(1.1939 0.0785464 0)
(1.19618 0.0756339 0)
(1.1984 0.0726967 0)
(1.20061 0.0697267 0)
(1.20275 0.0667232 0)
(1.20476 0.0636926 0)
(1.20662 0.0606422 0)
(1.20835 0.0575781 0)
(1.20996 0.0545046 0)
(1.21144 0.0514253 0)
(1.2128 0.0483438 0)
(1.18387 0.080648 0)
(1.18715 0.0780182 0)
(1.18975 0.0753242 0)
(1.19204 0.0726005 0)
(1.19426 0.069848 0)
(1.19647 0.0670597 0)
(1.1986 0.064235 0)
(1.20062 0.0613795 0)
(1.20251 0.0585003 0)
(1.20426 0.0556034 0)
(1.20589 0.0526931 0)
(1.2074 0.0497731 0)
(1.2088 0.0468474 0)
(1.17994 0.0769616 0)
(1.18312 0.0745233 0)
(1.18569 0.0720185 0)
(1.18797 0.0694794 0)
(1.19019 0.066908 0)
(1.19239 0.0642986 0)
(1.19452 0.0616505 0)
(1.19654 0.0589689 0)
(1.19844 0.0562602 0)
(1.20021 0.0535303 0)
(1.20186 0.0507836 0)
(1.2034 0.048024 0)
(1.20483 0.0452551 0)
(1.1761 0.0732119 0)
(1.17918 0.0709577 0)
(1.18172 0.0686359 0)
(1.18399 0.0662765 0)
(1.1862 0.0638821 0)
(1.18838 0.0614482 0)
(1.1905 0.0589741 0)
(1.19252 0.0564643 0)
(1.19442 0.0539248 0)
(1.1962 0.0513612 0)
(1.19787 0.048778 0)
(1.19944 0.0461789 0)
(1.20089 0.0435676 0)
(1.17237 0.0694062 0)
(1.17535 0.0673283 0)
(1.17784 0.0651832 0)
(1.1801 0.062998 0)
(1.18229 0.0607761 0)
(1.18446 0.0585137 0)
(1.18656 0.0562103 0)
(1.18857 0.0538696 0)
(1.19047 0.0514974 0)
(1.19226 0.0490989 0)
(1.19394 0.0466784 0)
(1.19552 0.0442396 0)
(1.197 0.041786 0)
(1.16875 0.0655506 0)
(1.17163 0.0636415 0)
(1.17408 0.0616662 0)
(1.17632 0.0596496 0)
(1.17849 0.0575951 0)
(1.18063 0.0555 0)
(1.18271 0.0533635 0)
(1.18471 0.051189 0)
(1.1866 0.0489817 0)
(1.18839 0.0467464 0)
(1.19008 0.0444873 0)
(1.19167 0.042208 0)
(1.19316 0.039912 0)
(1.16526 0.0616506 0)
(1.16803 0.0599027 0)
(1.17043 0.0580905 0)
(1.17264 0.0562365 0)
(1.17479 0.0543445 0)
(1.1769 0.0524119 0)
(1.17896 0.0504383 0)
(1.18094 0.0484266 0)
(1.18282 0.0463813 0)
(1.18461 0.044307 0)
(1.1863 0.0422077 0)
(1.1879 0.0400867 0)
(1.1894 0.0379475 0)
(1.16189 0.0577108 0)
(1.16456 0.0561166 0)
(1.16691 0.0544608 0)
(1.16909 0.0527635 0)
(1.1712 0.0510284 0)
(1.17329 0.0492537 0)
(1.17532 0.0474387 0)
(1.17728 0.045586 0)
(1.17915 0.0436996 0)
(1.18093 0.0417838 0)
(1.18262 0.0398422 0)
(1.18422 0.037878 0)
(1.18573 0.0358944 0)
(1.15866 0.0537344 0)
(1.16123 0.0522868 0)
(1.16353 0.0507809 0)
(1.16567 0.0492344 0)
(1.16775 0.047651 0)
(1.1698 0.0460291 0)
(1.1718 0.0443683 0)
(1.17374 0.0426708 0)
(1.17559 0.04094 0)
(1.17736 0.0391798 0)
(1.17904 0.0373935 0)
(1.18064 0.0355843 0)
(1.18216 0.0337549 0)
(1.15557 0.0497237 0)
(1.15805 0.048416 0)
(1.16029 0.0470535 0)
(1.16239 0.045652 0)
(1.16444 0.044215 0)
(1.16646 0.0427412 0)
(1.16843 0.0412302 0)
(1.17034 0.0396838 0)
(1.17217 0.0381051 0)
(1.17392 0.0364975 0)
(1.1756 0.0348642 0)
(1.1772 0.0332078 0)
(1.17871 0.031531 0)
(1.15264 0.0456795 0)
(1.15502 0.0445053 0)
(1.15721 0.0432803 0)
(1.15927 0.0420182 0)
(1.16129 0.0407225 0)
(1.16327 0.0393921 0)
(1.16521 0.0380266 0)
(1.16709 0.0366274 0)
(1.1689 0.0351973 0)
(1.17064 0.0337392 0)
(1.1723 0.0322561 0)
(1.17389 0.0307503 0)
(1.17541 0.0292244 0)
(1.14987 0.0416015 0)
(1.15217 0.0405548 0)
(1.1543 0.0394616 0)
(1.15633 0.0383339 0)
(1.15831 0.0371746 0)
(1.16025 0.0359831 0)
(1.16216 0.0347588 0)
(1.16401 0.0335029 0)
(1.1658 0.032218 0)
(1.16751 0.0309064 0)
(1.16917 0.0295709 0)
(1.17075 0.0282136 0)
(1.17226 0.0268367 0)
(1.14729 0.0374874 0)
(1.1495 0.036563 0)
(1.15158 0.0355965 0)
(1.15357 0.0345982 0)
(1.15551 0.0335709 0)
(1.15743 0.032514 0)
(1.1593 0.031427 0)
(1.16112 0.0303109 0)
(1.16288 0.0291678 0)
(1.16458 0.0279999 0)
(1.16622 0.0268094 0)
(1.16779 0.0255983 0)
(1.16929 0.0243686 0)
(1.14489 0.0333341 0)
(1.14703 0.0325272 0)
(1.14906 0.0316827 0)
(1.15101 0.0308096 0)
(1.15292 0.0299102 0)
(1.1548 0.028984 0)
(1.15664 0.0280307 0)
(1.15843 0.0270511 0)
(1.16017 0.0260468 0)
(1.16185 0.0250198 0)
(1.16347 0.023972 0)
(1.16503 0.0229051 0)
(1.16653 0.0218209 0)
(1.14271 0.029135 0)
(1.14478 0.0284414 0)
(1.14676 0.0277151 0)
(1.14868 0.0269634 0)
(1.15056 0.0261883 0)
(1.15241 0.0253897 0)
(1.15422 0.024567 0)
(1.15598 0.023721 0)
(1.1577 0.022853 0)
(1.15936 0.0219646 0)
(1.16096 0.0210574 0)
(1.16251 0.0201331 0)
(1.164 0.0191929 0)
(1.14076 0.0248848 0)
(1.14277 0.0243011 0)
(1.14471 0.0236894 0)
(1.14659 0.0230558 0)
(1.14844 0.0224022 0)
(1.15026 0.0217282 0)
(1.15204 0.0210335 0)
(1.15378 0.0203186 0)
(1.15548 0.0195846 0)
(1.15712 0.0188328 0)
(1.15871 0.0180647 0)
(1.16024 0.0172814 0)
(1.16172 0.0164842 0)
(1.13906 0.0205704 0)
(1.14101 0.0200941 0)
(1.14292 0.0195947 0)
(1.14478 0.019077 0)
(1.1466 0.0185426 0)
(1.14839 0.0179913 0)
(1.15015 0.0174228 0)
(1.15186 0.0168374 0)
(1.15354 0.016236 0)
(1.15516 0.0156197 0)
(1.15674 0.0149896 0)
(1.15826 0.0143467 0)
(1.15973 0.013692 0)
(1.13763 0.0161826 0)
(1.13955 0.0158116 0)
(1.14142 0.0154224 0)
(1.14325 0.0150189 0)
(1.14505 0.0146022 0)
(1.14682 0.0141721 0)
(1.14856 0.0137285 0)
(1.15026 0.0132715 0)
(1.15191 0.0128019 0)
(1.15352 0.0123203 0)
(1.15509 0.0118278 0)
(1.1566 0.011325 0)
(1.15806 0.0108128 0)
(1.13651 0.0117098 0)
(1.13839 0.0114433 0)
(1.14024 0.0111637 0)
(1.14205 0.0108737 0)
(1.14384 0.0105743 0)
(1.14559 0.0102653 0)
(1.14731 0.00994634 0)
(1.14899 0.00961774 0)
(1.15063 0.0092799 0)
(1.15223 0.00893339 0)
(1.15378 0.00857882 0)
(1.15529 0.00821675 0)
(1.15674 0.00784773 0)
(1.13573 0.00710496 0)
(1.13758 0.00694354 0)
(1.13941 0.00677455 0)
(1.14121 0.00659948 0)
(1.14298 0.00641874 0)
(1.14472 0.00623224 0)
(1.14643 0.00603981 0)
(1.1481 0.00584154 0)
(1.14973 0.00563764 0)
(1.15132 0.00542846 0)
(1.15287 0.00521434 0)
(1.15437 0.0049956 0)
(1.15582 0.00477258 0)
(1.13531 0.00243229 0)
(1.13715 0.00237432 0)
(1.13897 0.00231431 0)
(1.14077 0.00225254 0)
(1.14254 0.00218912 0)
(1.14427 0.002124 0)
(1.14597 0.00205712 0)
(1.14764 0.00198848 0)
(1.14926 0.00191813 0)
(1.15085 0.00184617 0)
(1.15239 0.00177269 0)
(1.15389 0.00169778 0)
(1.15534 0.00162155 0)
(1.15472 0.19374 1.96748e-21)
(1.15201 0.18834 -1.02148e-21)
(1.14933 0.182871 -2.25168e-23)
(1.14691 0.177405 2.09102e-21)
(1.14478 0.172019 -2.05077e-21)
(1.14286 0.166702 2.13291e-21)
(1.14109 0.161444 -3.06457e-21)
(1.13942 0.156226 2.25474e-21)
(1.13781 0.151047 -2.43655e-21)
(1.13625 0.145905 1.65862e-21)
(1.13473 0.140796 -1.60401e-21)
(1.13325 0.135726 6.56754e-22)
(1.13179 0.130691 1.47415e-21)
(1.13037 0.125686 -9.37972e-22)
(1.12897 0.120721 -7.9992e-22)
(1.12759 0.115793 5.16186e-22)
(1.12623 0.110902 -9.64121e-24)
(1.12488 0.106047 -7.57169e-22)
(1.12356 0.101228 9.52267e-22)
(1.12225 0.0964447 -2.61744e-22)
(1.12095 0.0916961 -3.57085e-22)
(1.11967 0.0869777 4.34701e-22)
(1.1184 0.0822955 1.76876e-22)
(1.11714 0.0776372 -4.6237e-22)
(1.11591 0.0730001 4.03025e-22)
(1.1147 0.0683928 -4.82308e-22)
(1.11351 0.0638019 3.92483e-22)
(1.11235 0.059227 -1.4999e-22)
(1.11122 0.0546625 3.40106e-22)
(1.11013 0.0501025 -1.86905e-22)
(1.10908 0.0455404 -3.46798e-22)
(1.10809 0.0409685 1.24156e-22)
(1.10715 0.0363779 4.47188e-23)
(1.10629 0.0317582 1.7419e-22)
(1.10551 0.027098 -3.63494e-22)
(1.10482 0.0223809 -1.79487e-22)
(1.10424 0.0175989 2.59047e-22)
(1.10378 0.0127097 -1.78102e-22)
(1.10346 0.0077482 1.73827e-22)
(1.10328 0.0025686 -1.27814e-22)
(1.15987 0.19199 2.10019e-21)
(1.15705 0.186747 -2.05475e-21)
(1.1542 0.181407 4.50089e-21)
(1.15156 0.176065 -1.11134e-21)
(1.1492 0.170787 -4.30369e-22)
(1.14708 0.165569 1.30496e-21)
(1.14512 0.160402 -4.10536e-21)
(1.14326 0.15527 3.44003e-23)
(1.14149 0.150171 1.13272e-21)
(1.13977 0.145102 -1.48385e-21)
(1.13811 0.140061 9.50694e-22)
(1.13648 0.135052 -1.00617e-21)
(1.13489 0.130073 -2.31372e-22)
(1.13333 0.125121 2.28319e-23)
(1.1318 0.120204 2.2013e-21)
(1.1303 0.11532 -1.01381e-21)
(1.12882 0.110468 -1.22318e-21)
(1.12737 0.105649 1.1217e-21)
(1.12593 0.100864 1.79585e-21)
(1.12452 0.096111 -1.24918e-21)
(1.12312 0.0913903 1.03878e-22)
(1.12174 0.0866979 -1.61818e-21)
(1.12039 0.0820385 8.75187e-22)
(1.11905 0.0774025 1.88477e-21)
(1.11773 0.0727867 -1.30207e-22)
(1.11645 0.0681981 -5.7134e-22)
(1.11519 0.063625 -4.35534e-22)
(1.11396 0.0590668 8.63592e-23)
(1.11276 0.0545179 -9.52393e-22)
(1.11161 0.0499727 3.29219e-22)
(1.11051 0.0454246 9.77151e-22)
(1.10947 0.0408662 -5.06077e-22)
(1.10849 0.0362885 1.19924e-21)
(1.10759 0.0316814 -5.07036e-22)
(1.10677 0.0270335 3.41038e-22)
(1.10605 0.0223284 4.76141e-22)
(1.10544 0.0175585 8.19549e-23)
(1.10496 0.0126812 6.63257e-23)
(1.10461 0.00773132 4.19651e-22)
(1.10442 0.00256724 9.57135e-24)
(1.16491 0.190177 6.44895e-21)
(1.162 0.185096 -4.91755e-22)
(1.15899 0.179892 2.1123e-21)
(1.15615 0.174681 -1.49351e-20)
(1.15357 0.169519 1.29823e-20)
(1.15124 0.164403 -5.3035e-21)
(1.1491 0.15933 -2.1238e-21)
(1.14707 0.154287 2.52554e-21)
(1.14514 0.14927 2.11426e-21)
(1.14327 0.144278 2.52874e-21)
(1.14146 0.139307 -8.06743e-21)
(1.13969 0.134362 5.04317e-21)
(1.13796 0.129442 2.69573e-21)
(1.13627 0.124545 9.82048e-22)
(1.13462 0.119677 -7.90683e-21)
(1.133 0.114838 5.63742e-21)
(1.13141 0.110027 1.42908e-21)
(1.12984 0.105246 -1.33432e-21)
(1.1283 0.100495 -2.33097e-21)
(1.12678 0.0957735 2.18652e-21)
(1.12529 0.0910815 -2.31294e-21)
(1.12382 0.0864157 1.77151e-21)
(1.12237 0.08178 1.71146e-21)
(1.12095 0.0771666 -3.10493e-21)
(1.11956 0.0725724 9.69037e-23)
(1.11819 0.0680029 5.00188e-22)
(1.11686 0.0634479 7.6499e-22)
(1.11556 0.0589065 -1.17499e-22)
(1.11431 0.0543734 3.83483e-22)
(1.1131 0.0498431 6.96451e-22)
(1.11194 0.0453093 7.66766e-24)
(1.11085 0.0407643 1.19897e-22)
(1.10982 0.0361997 -1.53612e-21)
(1.10888 0.0316051 1.01159e-21)
(1.10802 0.0269695 -3.25829e-23)
(1.10727 0.0222763 -9.68916e-22)
(1.10663 0.0175185 -7.00784e-22)
(1.10613 0.0126531 9.07997e-22)
(1.10577 0.00771453 2.53824e-23)
(1.10556 0.0025662 -2.18824e-22)
(1.16984 0.188306 -2.09471e-21)
(1.16685 0.183393 -8.44651e-21)
(1.16371 0.178328 1.50277e-20)
(1.16068 0.173258 -5.81349e-21)
(1.1579 0.168217 -6.56761e-21)
(1.15537 0.163208 6.30833e-21)
(1.15303 0.158231 -2.45423e-21)
(1.15084 0.15328 5.85073e-21)
(1.14875 0.148348 -1.50287e-20)
(1.14674 0.143434 1.02861e-20)
(1.14478 0.138537 5.17231e-21)
(1.14288 0.133657 -3.1734e-21)
(1.14102 0.128798 3.74281e-21)
(1.1392 0.123957 -3.04812e-21)
(1.13743 0.119141 -6.17784e-22)
(1.13568 0.114348 4.25538e-21)
(1.13398 0.109579 -2.90236e-21)
(1.1323 0.104837 4.20094e-21)
(1.13065 0.100122 -6.38163e-21)
(1.12904 0.0954324 5.26093e-21)
(1.12745 0.09077 -2.51006e-21)
(1.12589 0.0861314 1.33979e-22)
(1.12435 0.08152 -1.22076e-21)
(1.12285 0.0769297 -2.89178e-21)
(1.12137 0.0723574 7.06767e-22)
(1.11993 0.0678074 4.83712e-22)
(1.11853 0.0632707 8.78816e-22)
(1.11717 0.0587464 1.18099e-21)
(1.11585 0.0542293 -1.45255e-21)
(1.11458 0.049714 -4.02429e-22)
(1.11337 0.0451943 -2.51514e-22)
(1.11222 0.040663 -2.26209e-21)
(1.11115 0.0361114 -1.28722e-21)
(1.11016 0.0315293 -1.38484e-21)
(1.10927 0.026906 -1.64373e-21)
(1.10848 0.0222247 1.71003e-21)
(1.10782 0.0174789 -6.53222e-22)
(1.10729 0.0126252 -8.25818e-22)
(1.10691 0.00769781 -2.34877e-23)
(1.1067 0.00256544 2.43298e-23)
(1.17465 0.186383 7.41543e-21)
(1.1716 0.18164 -4.01205e-21)
(1.16835 0.176718 -1.1704e-20)
(1.16516 0.171796 -8.41733e-21)
(1.16218 0.166883 1.73881e-20)
(1.15945 0.161985 7.11091e-21)
(1.15694 0.157108 -1.21801e-20)
(1.15458 0.15225 -3.04605e-21)
(1.15233 0.147406 3.00172e-22)
(1.15017 0.142573 8.8599e-21)
(1.14808 0.13775 -3.23143e-21)
(1.14604 0.132939 1.22331e-20)
(1.14405 0.128142 -1.24318e-20)
(1.14211 0.12336 -7.14385e-21)
(1.14022 0.118595 1.064e-21)
(1.13836 0.11385 3.70823e-21)
(1.13654 0.109126 7.08554e-21)
(1.13475 0.104424 -1.09513e-20)
(1.133 0.0997443 3.97392e-21)
(1.13129 0.0950881 -3.36937e-21)
(1.1296 0.090456 6.31724e-21)
(1.12795 0.0858452 -2.04141e-21)
(1.12633 0.0812588 -5.37765e-22)
(1.12474 0.076692 2.59344e-21)
(1.12319 0.0721418 -9.23017e-22)
(1.12167 0.0676116 -2.13511e-21)
(1.1202 0.0630934 2.0158e-21)
(1.11877 0.0585864 -4.32916e-21)
(1.11738 0.0540853 1.3889e-21)
(1.11606 0.0495852 1.34141e-21)
(1.11479 0.0450799 1.233e-21)
(1.1136 0.0405622 -8.3549e-23)
(1.11248 0.0360236 3.01862e-21)
(1.11145 0.0314541 1.56482e-22)
(1.11052 0.026843 5.26626e-22)
(1.1097 0.0221736 -6.26054e-22)
(1.109 0.0174397 -2.1098e-22)
(1.10845 0.0125977 1.52976e-21)
(1.10806 0.00768114 -1.00066e-22)
(1.10783 0.00256488 6.83902e-22)
(1.17936 0.184413 2.63984e-20)
(1.17625 0.179842 -1.34365e-20)
(1.1729 0.175067 -2.70273e-20)
(1.16957 0.170298 3.75597e-20)
(1.16642 0.165521 -1.19157e-21)
(1.1635 0.160737 -2.29751e-20)
(1.1608 0.155962 -8.35133e-21)
(1.15828 0.151199 3.04669e-20)
(1.15588 0.146445 -1.61784e-20)
(1.15358 0.141695 -9.18679e-21)
(1.15135 0.136949 8.8449e-21)
(1.14918 0.132208 4.97569e-21)
(1.14707 0.127476 1.50843e-21)
(1.14501 0.122753 6.74249e-21)
(1.14299 0.118042 -1.13169e-20)
(1.14102 0.113346 -4.99983e-21)
(1.13909 0.108667 7.09185e-21)
(1.1372 0.104005 4.3237e-21)
(1.13534 0.0993632 -6.34144e-21)
(1.13353 0.0947409 8.93229e-21)
(1.13175 0.0901396 -5.58949e-21)
(1.13 0.0855573 -3.06079e-21)
(1.1283 0.0809966 -9.0747e-22)
(1.12662 0.0764536 1.10888e-21)
(1.12499 0.0719257 2.78496e-21)
(1.1234 0.0674155 -7.00582e-23)
(1.12186 0.0629162 2.77467e-21)
(1.12036 0.0584265 1.22401e-21)
(1.11892 0.0539418 -6.99065e-22)
(1.11753 0.0494569 -5.69102e-21)
(1.11621 0.0449659 3.91819e-21)
(1.11496 0.0404618 4.18926e-21)
(1.1138 0.0359363 -4.24859e-21)
(1.11273 0.0313793 2.44534e-21)
(1.11176 0.0267805 -8.72539e-22)
(1.1109 0.0221228 9.30308e-22)
(1.11018 0.0174007 -2.29451e-21)
(1.10961 0.0125705 -4.23586e-21)
(1.1092 0.0076645 -2.57336e-21)
(1.10895 0.00256449 -8.69985e-22)
(1.18396 0.182403 1.07263e-20)
(1.18079 0.178005 -4.3623e-20)
(1.17737 0.173377 7.49398e-21)
(1.17393 0.168766 3.06006e-20)
(1.17061 0.164131 -2.42764e-20)
(1.16751 0.159466 7.88202e-21)
(1.16464 0.154796 4.67752e-21)
(1.16195 0.15013 1.11683e-20)
(1.1594 0.145467 -1.93899e-21)
(1.15696 0.140802 -1.34813e-20)
(1.1546 0.136134 1.04342e-20)
(1.1523 0.131466 -3.39343e-21)
(1.15006 0.126799 -9.89402e-21)
(1.14788 0.122137 6.49295e-21)
(1.14575 0.117481 -1.24615e-20)
(1.14367 0.112836 9.63799e-21)
(1.14163 0.108202 -9.07176e-21)
(1.13963 0.103583 -1.30938e-21)
(1.13767 0.0989786 1.77282e-21)
(1.13576 0.094391 1.13875e-20)
(1.13389 0.0898213 -9.74482e-21)
(1.13205 0.0852679 5.88304e-21)
(1.13026 0.0807333 -7.83032e-22)
(1.1285 0.0762145 -7.19098e-21)
(1.1268 0.0717092 8.2013e-21)
(1.12513 0.0672194 -6.81872e-21)
(1.12351 0.062739 -3.40053e-21)
(1.12195 0.0582669 -2.76939e-21)
(1.12044 0.0537985 9.16719e-22)
(1.119 0.0493289 1.56331e-21)
(1.11762 0.0448524 2.68145e-22)
(1.11633 0.040362 -9.97481e-22)
(1.11511 0.0358495 1.93232e-21)
(1.114 0.031305 -3.50524e-21)
(1.11299 0.0267183 2.21953e-21)
(1.11211 0.0220724 4.66257e-23)
(1.11136 0.0173621 6.31157e-21)
(1.11076 0.0125436 4.16576e-21)
(1.11033 0.00764786 -6.97387e-22)
(1.11008 0.0025642 1.65609e-21)
(1.18845 0.180359 -6.94149e-20)
(1.18524 0.176132 3.40609e-20)
(1.18176 0.171652 1.6462e-20)
(1.17821 0.167202 -4.01348e-20)
(1.17476 0.162714 1.12289e-20)
(1.17149 0.158174 7.10772e-22)
(1.16844 0.153612 -1.86007e-20)
(1.16559 0.149045 1.45995e-20)
(1.16289 0.144473 -2.41001e-20)
(1.16031 0.139894 -1.64815e-21)
(1.15782 0.135307 2.74203e-20)
(1.1554 0.130712 -1.22255e-20)
(1.15304 0.126113 1.71681e-20)
(1.15074 0.121512 -6.51972e-21)
(1.14849 0.116914 5.85909e-21)
(1.1463 0.11232 -6.93722e-21)
(1.14415 0.107733 1.39456e-20)
(1.14205 0.103156 -4.71315e-21)
(1.14 0.0985908 -8.12992e-21)
(1.13799 0.0940386 4.61993e-21)
(1.13602 0.089501 2.02489e-21)
(1.1341 0.0849772 -2.60094e-21)
(1.13222 0.0804691 -5.24154e-21)
(1.13038 0.0759749 -5.87497e-22)
(1.12859 0.0714924 5.34596e-21)
(1.12685 0.0670232 2.74354e-23)
(1.12517 0.062562 -1.65946e-21)
(1.12353 0.0581076 5.19838e-21)
(1.12196 0.0536556 1.78074e-21)
(1.12046 0.0492014 -6.32263e-22)
(1.11903 0.0447393 2.35623e-22)
(1.11768 0.0402626 6.02003e-21)
(1.11642 0.0357631 2.48728e-21)
(1.11527 0.0312311 1.54651e-21)
(1.11422 0.0266566 2.30764e-22)
(1.1133 0.0220224 -3.06297e-21)
(1.11252 0.0173236 -3.74657e-21)
(1.1119 0.0125169 -4.2048e-21)
(1.11146 0.00763121 5.42673e-21)
(1.11119 0.00256397 5.53924e-22)
(1.19284 0.178284 -1.45538e-20)
(1.18958 0.174228 2.61092e-20)
(1.18605 0.169896 -6.16232e-20)
(1.18243 0.165609 7.16908e-21)
(1.17886 0.161274 7.4522e-20)
(1.17543 0.156863 -2.624e-20)
(1.17221 0.152411 -3.56096e-20)
(1.1692 0.147944 -1.19378e-20)
(1.16635 0.143465 4.42759e-20)
(1.16364 0.138974 -4.3447e-20)
(1.16102 0.134467 2.97012e-20)
(1.15847 0.129948 -4.57657e-21)
(1.156 0.125418 -7.07477e-21)
(1.15358 0.12088 2.80438e-21)
(1.15122 0.116339 8.33577e-21)
(1.14892 0.111798 -1.92017e-20)
(1.14667 0.107259 1.67478e-20)
(1.14446 0.102726 -3.9845e-21)
(1.14231 0.0982002 9.39352e-22)
(1.1402 0.093684 -2.90058e-21)
(1.13814 0.0891792 -2.47405e-21)
(1.13613 0.0846852 4.86393e-21)
(1.13417 0.0802043 -8.21727e-21)
(1.13225 0.0757349 5.93826e-21)
(1.13038 0.0712754 3.29704e-21)
(1.12857 0.0668269 -3.97658e-21)
(1.12681 0.0623851 6.88732e-22)
(1.12511 0.0579485 7.7198e-22)
(1.12348 0.053513 -1.4725e-21)
(1.12192 0.0490742 5.63049e-21)
(1.12043 0.0446267 -3.92977e-21)
(1.11903 0.0401636 -3.08172e-21)
(1.11773 0.0356772 2.37166e-22)
(1.11653 0.0311577 -1.23076e-21)
(1.11545 0.0265952 4.11084e-21)
(1.11449 0.0219726 -8.32749e-22)
(1.11369 0.0172854 1.1512e-21)
(1.11304 0.0124904 -1.80766e-21)
(1.11258 0.00761453 -4.28876e-21)
(1.1123 0.00256373 -1.7292e-21)
(1.19712 0.176186 -4.96655e-20)
(1.19382 0.172298 4.88432e-20)
(1.19025 0.168111 2.19376e-20)
(1.18658 0.163988 -4.22878e-20)
(1.18291 0.15981 -7.51832e-21)
(1.17934 0.155533 1.81915e-20)
(1.17596 0.151195 -1.15539e-20)
(1.17279 0.146829 7.14917e-21)
(1.16979 0.142445 3.99731e-20)
(1.16694 0.138042 -4.71078e-20)
(1.16419 0.133618 3.6469e-20)
(1.16153 0.129175 -2.81647e-20)
(1.15894 0.124715 1.38089e-20)
(1.15641 0.120242 1.28998e-20)
(1.15394 0.115759 -8.26079e-22)
(1.15153 0.111271 -3.4738e-20)
(1.14917 0.106781 1.93675e-20)
(1.14687 0.102292 -2.35473e-20)
(1.14461 0.097807 2.80178e-20)
(1.14241 0.0933274 -1.10791e-20)
(1.14026 0.0888558 -5.72904e-22)
(1.13816 0.0843922 5.14224e-21)
(1.13611 0.0799387 -4.06258e-21)
(1.13411 0.0754945 -3.23162e-21)
(1.13217 0.0710581 5.97145e-22)
(1.13028 0.0666307 -2.07582e-21)
(1.12845 0.0622083 2.04646e-22)
(1.12669 0.0577896 -2.98402e-21)
(1.12499 0.0533708 -1.24714e-21)
(1.12337 0.0489474 2.95723e-21)
(1.12183 0.0445144 3.86316e-21)
(1.12038 0.040065 -2.89636e-21)
(1.11903 0.0355916 -6.27666e-21)
(1.11778 0.0310845 4.60692e-22)
(1.11666 0.0265341 -1.42558e-21)
(1.11568 0.0219231 -4.99468e-22)
(1.11484 0.0172474 -2.89978e-22)
(1.11418 0.012464 3.98877e-21)
(1.1137 0.00759777 4.49845e-21)
(1.1134 0.00256343 1.31144e-21)
(1.20131 0.174069 -8.2098e-20)
(1.19796 0.170347 -2.52691e-20)
(1.19436 0.166301 5.41656e-20)
(1.19065 0.162342 1.38314e-21)
(1.1869 0.158325 3.98911e-21)
(1.18321 0.154185 -5.1944e-20)
(1.17968 0.149964 2.81921e-20)
(1.17635 0.145703 1.45157e-20)
(1.17321 0.141414 2.56673e-21)
(1.17022 0.137099 6.35215e-22)
(1.16734 0.132758 -2.9954e-20)
(1.16456 0.128392 4.37889e-20)
(1.16186 0.124004 -2.03508e-20)
(1.15922 0.119596 2.24966e-20)
(1.15664 0.115173 -3.62179e-21)
(1.15412 0.11074 7.56288e-21)
(1.15166 0.1063 -2.40172e-20)
(1.14926 0.101856 1.1652e-21)
(1.14691 0.0974113 6.65426e-22)
(1.14461 0.092969 1.51428e-20)
(1.14237 0.0885311 -5.10781e-21)
(1.14018 0.0840983 -1.10488e-20)
(1.13805 0.0796726 1.69531e-20)
(1.13597 0.0752539 -6.53901e-21)
(1.13395 0.0708408 3.57946e-21)
(1.13199 0.0664346 5.96602e-22)
(1.13009 0.0620318 -6.72603e-21)
(1.12825 0.057631 5.50947e-21)
(1.1265 0.0532288 -7.89343e-21)
(1.12481 0.048821 -4.4475e-21)
(1.12322 0.0444024 -3.66018e-21)
(1.12172 0.0399667 -8.57055e-22)
(1.12032 0.0355063 8.05592e-21)
(1.11903 0.0310116 -1.73073e-21)
(1.11787 0.0264732 2.99767e-21)
(1.11686 0.0218738 5.54471e-21)
(1.11599 0.0172094 -1.13304e-22)
(1.1153 0.0124378 -1.52616e-21)
(1.11481 0.00758093 2.6472e-21)
(1.1145 0.00256301 -1.07855e-21)
(1.20541 0.171937 -2.17948e-20)
(1.20201 0.168377 6.51992e-21)
(1.19838 0.16447 -6.03208e-20)
(1.19465 0.160674 -1.69178e-20)
(1.19084 0.156819 5.52768e-20)
(1.18705 0.152821 1.59459e-20)
(1.18338 0.148721 -4.02355e-20)
(1.17989 0.144565 1.76374e-20)
(1.1766 0.140373 -2.54298e-20)
(1.17348 0.136148 4.38353e-20)
(1.17048 0.13189 -4.63178e-20)
(1.16758 0.127602 1.43718e-20)
(1.16476 0.123286 5.98872e-21)
(1.16201 0.118944 -1.39261e-20)
(1.15933 0.114582 2.9248e-20)
(1.15671 0.110204 -1.97407e-20)
(1.15414 0.105814 1.28727e-20)
(1.15164 0.101416 -2.85284e-20)
(1.14919 0.0970136 2.74253e-20)
(1.14681 0.0926089 5.38746e-24)
(1.14447 0.0882052 -1.89561e-20)
(1.1422 0.0838036 1.75573e-20)
(1.13998 0.079406 -3.03546e-21)
(1.13782 0.0750129 -7.81828e-21)
(1.13572 0.0706234 -6.68994e-22)
(1.13368 0.0662385 1.19579e-21)
(1.13171 0.0618553 7.86562e-21)
(1.12982 0.0574727 -8.72073e-21)
(1.12799 0.0530871 -1.05364e-21)
(1.12625 0.0486948 1.39135e-21)
(1.1246 0.0442908 3.00556e-21)
(1.12305 0.0398687 -2.64448e-21)
(1.1216 0.0354212 -2.96277e-21)
(1.12027 0.0309389 -2.36383e-21)
(1.11908 0.0264124 -1.80195e-21)
(1.11803 0.0218246 2.38921e-21)
(1.11713 0.0171715 1.97226e-21)
(1.11642 0.0124116 1.43215e-21)
(1.11591 0.00756397 2.30591e-21)
(1.11559 0.00256243 -8.69507e-22)
(1.20941 0.169795 -2.24933e-20)
(1.20597 0.166394 7.3949e-20)
(1.2023 0.162622 -1.02665e-19)
(1.19856 0.158985 6.36919e-20)
(1.19472 0.155293 3.63162e-21)
(1.19084 0.151441 2.63571e-20)
(1.18705 0.147465 -8.12546e-20)
(1.18342 0.143418 3.63577e-21)
(1.17998 0.139323 1.30481e-20)
(1.17672 0.135188 2.42794e-20)
(1.17359 0.131015 -2.50041e-21)
(1.17057 0.126805 -3.15155e-20)
(1.16764 0.122561 3.01183e-20)
(1.16479 0.118287 -1.60781e-20)
(1.162 0.113987 9.99728e-21)
(1.15928 0.109665 -1.6994e-20)
(1.15661 0.105326 3.74509e-20)