/*--------------------------------*- C++ -*----------------------------------*\
  =========                 |
  \\      /  F ield         | OpenFOAM: The Open Source CFD Toolbox
   \\    /   O peration     | Website:  https://openfoam.org
    \\  /    A nd           | Version:  7
     \\/     M anipulation  |
\*---------------------------------------------------------------------------*/
FoamFile
{
    version     2.0;
    format      ascii;
    class       surfaceScalarField;
    location    "180";
    object      phi;
}
// * * * * * * * * * * * * * * * * * * * * * * * * * * * * * * * * * * * * * //

dimensions      [0 3 -1 0 0 0 0];

internalField   nonuniform List<scalar> 
3876
(
0.00071455
0.00480131
0.000739211
0.00502496
0.000738965
0.00518901
0.00529597
0.00586898
0.000235023
-0.000321282
0.00594855
7.40434e-05
-0.000153615
0.00601838
-0.000131971
6.21481e-05
0.00607057
-0.000372917
0.000320727
0.00610118
-0.000643004
0.000612388
0.00610608
-0.000934343
0.000929448
0.00608318
-0.00123713
0.00126003
0.00603284
-0.00154042
0.00159076
0.00595745
-0.00183376
0.00190915
0.00586069
-0.00210814
0.0022049
0.0057468
-0.00235652
0.00247042
0.00562001
-0.00257399
0.00270078
0.00548429
-0.0027577
0.00289342
0.00534317
-0.00290662
0.00304774
0.0051996
-0.0030212
0.00316477
0.00505595
-0.00310299
0.00324663
0.00491396
-0.00315419
0.00329618
0.00477477
-0.00317729
0.00331648
0.004639
-0.00317472
0.00331049
0.00450679
-0.00314856
0.00328077
0.00437796
-0.00310052
0.00322935
0.00425213
-0.00303154
0.00315737
0.00412872
-0.0029416
0.00306501
0.00400708
-0.00283033
0.00295197
0.00388693
-0.00269677
0.00281692
0.00376811
-0.0025377
0.00265652
0.00364873
-0.00234893
0.0024683
0.00352459
-0.0021313
0.00225544
0.00339388
-0.00189119
0.0020219
0.00326438
-0.00162707
0.00175657
0.00315467
-0.00131546
0.00142516
0.00308623
-0.000917665
0.000986106
0.0030758
-0.000408245
0.000418679
0.00311943
0.000212034
-0.00025567
0.00320962
0.000894404
-0.000984592
0.0033333
0.00158433
-0.00170801
0.0034774
0.00223263
-0.00237673
0.00363058
0.00280897
-0.00296216
0.00378385
0.00330895
-0.00346222
0.00393151
0.00375538
-0.00390303
0.00407241
0.00418969
-0.00433059
0.00421022
0.00464907
-0.00478688
0.004352
0.00513266
-0.00527445
0.00450521
0.00557382
-0.00572703
0.00467108
0.00584803
-0.0060139
0.00483807
0.00582536
-0.00599235
0.00498995
0.00540531
-0.00555719
0.00511931
0.00450307
-0.00463244
0.00522104
0.00308169
-0.00318342
0.00527922
0.0012485
-0.00130669
0.0052971
-0.000739983
0.000722107
0.00526495
-0.00254263
0.00257478
0.00518425
-0.0039165
0.00399719
0.00506478
-0.00477913
0.0048986
0.00492203
-0.00519545
0.0053382
-0.00529842
0.00611041
0.000160047
0.00618035
4.10437e-06
0.00623722
-0.000188841
0.00627736
-0.000413059
0.00629688
-0.000662527
0.00629293
-0.000930391
0.00626405
-0.00120825
0.00621051
-0.00148688
0.0061341
-0.00175734
0.00603771
-0.00201175
0.00592488
-0.00224369
0.00579939
-0.0024485
0.00566493
-0.00262325
0.00552491
-0.00276659
0.00538221
-0.0028785
0.00523916
-0.00295993
0.00509747
-0.0030125
0.00495827
-0.0030381
0.00482223
-0.00303867
0.00468957
-0.00301589
0.00456019
-0.00297114
0.00443383
-0.00290518
0.00431009
-0.00281787
0.00418843
-0.00270867
0.00406852
-0.00257686
0.00395054
-0.00241973
0.00383378
-0.00223216
0.00371478
-0.0020123
0.00358985
-0.00176626
0.00346228
-0.00149951
0.00334726
-0.00120043
0.00326719
-0.000837597
0.00323856
-0.000379618
0.00326944
0.000181162
0.00335177
0.000812071
0.00347227
0.00146382
0.00361665
0.00208826
0.00377229
0.00265333
0.00392943
0.00315181
0.00408214
0.00360266
0.00422942
0.0040424
0.00437528
0.00450321
0.00452749
0.00498045
0.00469391
0.0054074
0.00487393
0.005668
0.00505399
0.00564531
0.00521826
0.00524104
0.00535722
0.00436411
0.00546265
0.00297626
0.00553043
0.00118072
0.00554966
-0.000759218
0.00551536
-0.00250833
0.00542656
-0.0038277
0.00529555
-0.00464812
0.00514077
-0.00504067
-0.00513571
0.00633355
9.36099e-05
0.00639306
-5.54073e-05
0.00643996
-0.000235742
0.00647053
-0.000443622
0.00648166
-0.000673664
0.00647111
-0.000919836
0.00643776
-0.00117491
0.00638189
-0.00143101
0.00630499
-0.00168044
0.00620951
-0.00191626
0.00609852
-0.0021327
0.0059754
-0.00232537
0.00584348
-0.00249133
0.00570586
-0.00262898
0.00556525
-0.00273788
0.00542381
-0.0028185
0.00528323
-0.00287191
0.00514464
-0.00289951
0.00500876
-0.0029028
0.00487593
-0.00288307
0.00474619
-0.0028414
0.0046194
-0.00277839
0.00449537
-0.00269384
0.00437372
-0.00258702
0.00425411
-0.00245725
0.00413684
-0.00230245
0.00402217
-0.00211749
0.00390811
-0.00189825
0.00379054
-0.00164869
0.00366898
-0.00137794
0.0035534
-0.00108485
0.00346366
-0.000747866
0.00342013
-0.000336081
0.0034352
0.000166091
0.00350573
0.00074154
0.00361974
0.00134981
0.0037622
0.00194579
0.00391914
0.00249639
0.00407968
0.00299128
0.00423734
0.003445
0.00439096
0.00388878
0.00454486
0.00434931
0.00470773
0.00481759
0.00488735
0.00522778
0.00508098
0.00547438
0.00527381
0.00545248
0.00545012
0.00506472
0.00559949
0.00421475
0.00571522
0.00286053
0.00579089
0.00110505
0.00581406
-0.000782381
0.00577571
-0.00246999
0.00567704
-0.00372903
0.00553355
-0.00450463
0.00536637
-0.00487349
-0.00496211
0.00654264
0.0065934
0.00663208
0.00665517
0.00666005
0.00664483
0.00660862
0.00655171
0.00647537
0.00638172
0.00627344
0.00615349
0.00602484
0.00589032
0.00575239
0.00561312
0.00547412
0.00533657
0.00520126
0.00506863
0.00493884
0.0048119
0.00468777
0.00456628
0.00444716
0.00433067
0.00421769
0.00410783
0.00399769
0.00388426
0.00377221
0.00367731
0.00362087
0.00361882
0.00367406
0.00377775
0.00391531
0.00407166
0.00234005
0.00423461
0.00282833
0.00439674
0.00328287
0.0045565
0.00372903
0.00471859
0.00418722
0.00489243
0.00464374
0.00508505
0.00503516
0.00529165
0.00526777
0.005497
0.00524712
0.00568571
0.00487602
0.00584744
0.00405302
0.00597552
0.00273245
0.00606053
0.00102004
0.00608699
-0.000808838
0.00604349
-0.00242649
0.0059342
-0.00361974
0.00577808
-0.0043485
0.00559866
-0.00469407
-0.00477791
0.00423059
0.0043942
0.00455987
0.00472544
0.00489599
0.00508114
0.00528646
0.00550562
0.00572339
0.00592477
0.0061
0.00624221
0.00633802
0.00636715
0.0063177
0.00619728
0.00602851
0.00583721
0.000608484
0.00473665
0.000648695
0.00498475
0.000668816
0.00516889
0.000681208
0.00528358
0.000705149
0.00530374
0.000761497
0.00518621
0.000864674
0.0048845
0.00101678
0.00437088
0.0012082
0.00364987
0.00142352
0.00275393
0.00164752
0.00172821
0.00186884
0.000617421
0.00208074
-0.000537025
0.00227974
-0.0016906
0.00246261
-0.0027847
0.00262442
-0.0037495
0.00275923
-0.00452263
0.0028626
-0.00507176
0.00293354
-0.00540431
0.00297468
-0.00555978
0.00299086
-0.00559286
0.00298742
-0.00555722
0.00296903
-0.00549489
0.00293853
-0.0054341
0.00289573
-0.00539634
0.0028377
-0.00540442
0.00276215
-0.00547516
0.00267265
-0.00559169
0.00258141
-0.0056754
0.00250625
-0.00559012
0.00246326
-0.00519087
0.00246094
-0.00438989
0.00249976
-0.00319377
0.00257517
-0.00169556
0.0026798
-4.44835e-05
0.00280323
0.00158706
0.00293251
0.00303616
0.00305402
0.00418949
0.00315694
0.00500706
0.00323546
0.00551814
0.00328859
0.00579489
0.00331873
0.00592013
0.00332985
0.00596302
0.00332538
0.0059733
0.00330605
0.00599376
0.00326963
0.00606939
0.00321374
0.00622698
0.00313988
0.00643078
0.00305495
0.00655788
0.00296909
0.00643018
0.00289231
0.00588888
0.00283318
0.00485944
0.00279889
0.00337403
0.00279464
0.00156069
0.00282175
-0.00038424
0.00287606
-0.00223979
0.002948
-0.00381684
0.00302499
-0.00500842
0.00309552
-0.00580467
-0.00626774
0.000515444
0.00465729
0.000574139
0.00492605
0.000618703
0.00512433
0.000662825
0.00523946
0.000724801
0.00524177
0.000821589
0.00508942
0.00096194
0.00474415
0.00114305
0.00418978
0.00135305
0.00343986
0.00157674
0.00253025
0.00180032
0.00150462
0.00201432
0.000403426
0.00221405
-0.000736755
0.00239774
-0.00187429
0.00256332
-0.00295028
0.00270659
-0.00389277
0.00282236
-0.0046384
0.00290714
-0.00515653
0.0029609
-0.00545807
0.002987
-0.00558588
0.00299055
-0.00559641
0.00297673
-0.0055434
0.00294976
-0.00546791
0.00291205
-0.00539638
0.00286313
-0.00534743
0.00279967
-0.00534096
0.00271854
-0.00539403
0.0026223
-0.00549545
0.00252285
-0.00557596
0.00243911
-0.00550638
0.00238932
-0.00514109
0.002384
-0.00438457
0.00242448
-0.00323425
0.00250586
-0.00177695
0.00261975
-0.000158367
0.00275429
0.00145252
0.00289547
0.00289498
0.00302883
0.00405613
0.003143
0.00489289
0.00323177
0.00542937
0.00329399
0.00573268
0.0033321
0.00588202
0.00335031
0.0059448
0.00335229
0.00597133
0.003339
0.00600704
0.0033086
0.0060998
0.00325905
0.00627653
0.00319176
0.00649807
0.00311277
0.00663687
0.0030308
0.00651215
0.00295463
0.00596506
0.00289233
0.00492174
0.00285134
0.00341502
0.00283761
0.00157443
0.00285365
-0.000400278
0.00289663
-0.00228277
0.00295817
-0.00387838
0.00302618
-0.00507643
0.00308914
-0.00586763
-0.00631773
0.00043897
0.000519427
0.0048456
0.000592098
0.00505166
0.000670758
0.0051608
0.000771424
0.0051411
0.000906533
0.00495431
0.00107968
0.004571
0.00128449
0.00398497
0.00150803
0.00321633
0.00173582
0.00230246
0.00195569
0.00128475
0.0021601
0.000199017
0.00234629
-0.000922948
0.00251397
-0.00204198
0.0026619
-0.00309822
0.00278645
-0.00401732
0.00288313
-0.00473508
0.00294942
-0.00522282
0.00298631
-0.00549496
0.00299782
-0.00559739
0.00298929
-0.00558789
0.00296569
-0.0055198
0.00293073
-0.00543295
0.00288638
-0.00535204
0.00283196
-0.00529301
0.00276382
-0.00527282
0.00267807
-0.00530828
0.00257616
-0.00539354
0.00246934
-0.00546914
0.00237728
-0.00541431
0.0023203
-0.00508411
0.00231112
-0.00437539
0.00235222
-0.00327535
0.00243851
-0.00186323
0.00256063
-0.000280491
0.00270545
0.0013077
0.00285785
0.00274258
0.00300262
0.00391136
0.00312779
0.00476772
0.00322675
0.00533041
0.00329811
0.00566132
0.00334436
0.00583577
0.00336988
0.00591928
0.00337857
0.00596264
0.00337168
0.00601393
0.00334778
0.0061237
0.00330519
0.00631912
0.0032451
0.00655815
0.0031726
0.00670938
0.00309491
0.00658984
0.0030196
0.00604036
0.00295424
0.0049871
0.00290646
0.00346281
0.00288293
0.00159796
0.00288739
-0.000404741
0.00291846
-0.00231385
0.00296903
-0.00392894
0.00302765
-0.00513506
0.00308281
-0.00592278
-0.00636122
0.000488257
0.00474037
0.000591685
0.00494823
0.000706014
0.00504647
0.000844117
0.005003
0.00101388
0.00478454
0.00121466
0.00437023
0.00143772
0.00376192
0.00166994
0.0029841
0.00189796
0.00207444
0.00211131
0.0010714
0.00230435
5.97434e-06
0.00247614
-0.00109474
0.0026275
-0.00219333
0.00275771
-0.00322843
0.00286355
-0.00412315
0.00294125
-0.00481278
0.00298931
-0.00527088
0.00300973
-0.00551538
0.00300718
-0.00559484
0.00298717
-0.00556788
0.0029544
-0.00548703
0.00291207
-0.00539062
0.00286168
-0.00530165
0.00280234
-0.00523367
0.00273025
-0.00520074
0.00264087
-0.0052189
0.00253443
-0.00528709
0.0024212
-0.00535591
0.0023212
-0.00531431
0.00225668
-0.00501959
0.00224276
-0.00436147
0.00228334
-0.00331593
0.00237334
-0.00195324
0.00250256
-0.000409711
0.00265672
0.00115355
0.00281961
0.00257968
0.00297527
0.0037557
0.00311117
0.00463183
0.00322021
0.00522137
0.00330076
0.00558076
0.00335529
0.00578123
0.00338834
0.00588623
0.00340399
0.00594699
0.00340384
0.00601408
0.00338689
0.00614064
0.00335182
0.0063542
0.00329954
0.00661043
0.00323404
0.00677488
0.00316106
0.00666282
0.00308694
0.00611448
0.00301871
0.00505533
0.00296411
0.00351741
0.00293054
0.00163152
0.00292299
-0.000397194
0.00294161
-0.00233246
0.00298067
-0.003968
0.00302951
-0.0051839
0.00307662
-0.00596989
-0.00639811
0.000483804
0.00460833
0.000619111
0.00481292
0.000768393
0.00489718
0.000940972
0.00483042
0.00114059
0.00458492
0.00136339
0.00414743
0.00159936
0.00352595
0.00183577
0.00274769
0.00206057
0.00184964
0.00226506
0.000866906
0.00244553
-0.000174492
0.00260248
-0.00125169
0.00273752
-0.00232837
0.00285019
-0.0033411
0.00293752
-0.00421048
0.00299647
-0.00487174
0.00302667
-0.00530108
0.00303111
-0.00551982
0.0030151
-0.00557883
0.00298424
-0.00553702
0.00294294
-0.00544572
0.00289385
-0.00534154
0.00283801
-0.0052458
0.00277434
-0.00517
0.002699
-0.0051254
0.00260694
-0.00512684
0.00249714
-0.0051773
0.0023786
-0.00523737
0.00227122
-0.00520693
0.00219892
-0.00494729
0.00217934
-0.00434189
0.00221814
-0.00335473
0.00231057
-0.00204568
0.00244564
-0.00054478
0.0026081
0.000991089
0.00278069
0.00240709
0.0029467
0.0035897
0.00309298
0.00448554
0.00321198
0.00510238
0.00330175
0.00549099
0.0033647
0.00571828
0.00340544
0.00584548
0.00342828
0.00592415
0.00343516
0.0060072
0.0034256
0.00615021
0.00339855
0.00638125
0.00335463
0.00665435
0.00329666
0.00683285
0.00322884
0.00673063
0.0031563
0.00618703
0.00308545
0.00512617
0.00302412
0.00357874
0.00298034
0.0016753
0.00296043
-0.000377286
0.0029661
-0.00233812
0.00299315
-0.00399506
0.00303181
-0.00522256
0.00307064
-0.00600872
-0.00642833
0.000508345
0.00444886
0.000674843
0.00464642
0.000856567
0.00471546
0.00105929
0.0046277
0.00128325
0.00436096
0.00152238
0.00390829
0.00176618
0.00328215
0.00200269
0.00251117
0.00222133
0.001631
0.00241515
0.000673083
0.0025823
-0.000341637
0.00272436
-0.00139375
0.00284338
-0.00244739
0.00293884
-0.00343656
0.00300797
-0.00427961
0.00304854
-0.00491231
0.00306133
-0.00531386
0.00305039
-0.00550888
0.00302157
-0.00555001
0.00298053
-0.00549598
0.00293133
-0.00539652
0.0028761
-0.00528631
0.00281539
-0.00518509
0.00274796
-0.00510256
0.00267002
-0.00504746
0.00257619
-0.00503301
0.00246424
-0.00506535
0.0023416
-0.00511473
0.00222756
-0.00509288
0.00214735
-0.00486708
0.0021212
-0.00431574
0.00215692
-0.00339045
0.00225037
-0.00213912
0.00238992
-0.000684332
0.00255961
0.000821402
0.00274102
0.00222568
0.00291676
0.00341396
0.00307308
0.00432922
0.00320187
0.00497358
0.00330087
0.005392
0.00337233
0.00564682
0.00342094
0.00579688
0.00345116
0.00589393
0.00346534
0.00599302
0.00346352
0.00615203
0.00344497
0.0063998
0.0034099
0.00668942
0.00335995
0.0068828
0.00329779
0.0067928
0.00322725
0.00625756
0.00315413
0.00519929
0.00308623
0.00364665
0.00303218
0.00172935
0.00299964
-0.000344747
0.00299192
-0.00233041
0.00300652
-0.00400966
0.00303462
-0.00525066
0.00306495
-0.00603905
-0.00645178
0.000562931
0.00426313
0.000758129
0.00445123
0.00096826
0.00450533
0.00119583
0.00440013
0.00143831
0.00411848
0.00168825
0.00365835
0.0019352
0.00303521
0.00216822
0.00227815
0.00237827
0.00142095
0.00256009
0.000491263
0.00271361
-0.000495151
0.00284106
-0.0015212
0.00294454
-0.00255087
0.00302324
-0.00351526
0.00307456
-0.00433094
0.0030972
-0.00493494
0.00309314
-0.0053098
0.00306747
-0.00548322
0.00302655
-0.00550909
0.00297602
-0.00544545
0.00291957
-0.00534007
0.00285881
-0.00522555
0.0027938
-0.00512008
0.00272316
-0.00503192
0.00264322
-0.00496753
0.00254845
-0.00493823
0.00243553
-0.00495243
0.00231009
-0.0049893
0.0021903
-0.0049731
0.00210224
-0.00477902
0.00206868
-0.00428218
0.00209993
-0.0034217
0.00219289
-0.00223208
0.0023355
-0.000826941
0.00251124
0.000645666
0.00270054
0.00203637
0.00288536
0.00322914
0.00305129
0.00416328
0.0031897
0.00483518
0.00329789
0.00528381
0.00337796
0.00556675
0.00343456
0.00574027
0.00347234
0.00585615
0.00349405
0.00597132
0.00350027
0.00614581
0.0034906
0.00640947
0.00346483
0.00671519
0.00342338
0.00692425
0.00336736
0.00684881
0.00329933
0.00632559
0.00322436
0.00527426
0.00315012
0.00372089
0.00308584
0.00179363
0.00304049
-0.000299396
0.00301905
-0.00230897
0.00302078
-0.00401138
0.00303798
-0.00526785
0.00305958
-0.00606066
-0.00646838
0.000647196
0.00405406
0.000867071
0.00423135
0.00110046
0.00427194
0.00134704
0.00415355
0.00160224
0.00386328
0.00185782
0.00340278
0.00210372
0.00278931
0.00233018
0.00205169
0.00252976
0.00122138
0.00269872
0.000322299
0.00283869
-0.00063512
0.00295204
-0.00163455
0.00304057
-0.0026394
0.00310301
-0.00357771
0.003137
-0.00436492
0.0031422
-0.00494015
0.00312192
-0.00528952
0.00308226
-0.00544355
0.00303
-0.00545683
0.00297068
-0.00538613
0.00290762
-0.00527701
0.00284191
-0.00515985
0.00277317
-0.00505134
0.00269984
-0.00495858
0.00261845
-0.00488614
0.00252349
-0.00484327
0.0024107
-0.00483964
0.00228382
-0.00486242
0.0021594
-0.00484868
0.00206375
-0.00468337
0.00202205
-0.00424047
0.00204741
-0.00344706
0.00213827
-0.00232295
0.00228249
-0.000971159
0.00246299
0.000465168
0.00265918
0.00184019
0.00285236
0.00303596
0.00302747
0.00398817
0.00317525
0.0046874
0.00329259
0.00516647
0.00338132
0.00547802
0.00344603
0.00567557
0.00349151
0.00581067
0.00352092
0.00594191
0.00353544
0.00613129
0.00353496
0.00640994
0.00351887
0.00673128
0.00348637
0.00695675
0.003437
0.00689818
0.00337201
0.00639058
0.00329566
0.00535062
0.00321544
0.0038011
0.00314107
0.001868
0.00308284
-0.000241163
0.00304741
-0.00227354
0.00303592
-0.0039999
0.00304189
-0.00527382
0.00305457
-0.00607334
-0.00647804
0.000759341
0.00382583
0.000998795
0.0039919
0.00124966
0.00402107
0.00150928
0.00389393
0.00177163
0.00360094
0.00202815
0.00314626
0.00226937
0.00254808
0.00248672
0.00183433
0.00267442
0.00103367
0.00283024
0.00016648
0.00295702
-0.000761894
0.00305694
-0.00173447
0.00313116
-0.00271362
0.00317785
-0.0036244
0.00319496
-0.00438203
0.0031833
-0.00492849
0.00314751
-0.00525373
0.00309464
-0.00539069
0.00303184
-0.00539402
0.00296446
-0.00531876
0.00289542
-0.00520797
0.00282534
-0.00508976
0.0027534
-0.0049794
0.00267787
-0.00488305
0.00259552
-0.00480379
0.002501
-0.00474876
0.00238937
-0.004728
0.00226242
-0.00473547
0.00213464
-0.0047209
0.00203194
-0.00458068
0.00198153
-0.00419006
0.00199964
-0.00346517
0.00208669
-0.00241
0.00223095
-0.00111542
0.00241488
0.000281244
0.00261687
0.00163819
0.00281765
0.00283518
0.00300144
0.00380438
0.00315835
0.00453049
0.00328476
0.00504006
0.00338218
0.00538059
0.00345507
0.00560267
0.00350835
0.0057574
0.0035456
0.00590466
0.0035686
0.00610829
0.00357756
0.00640098
0.00357146
0.00673738
0.0035483
0.00697991
0.0035061
0.00694038
0.00344472
0.00645196
0.00336755
0.0054278
0.00328179
0.00388686
0.00319755
0.00195224
0.00312648
-0.000170092
0.00307689
-0.00222396
0.00305191
-0.00397491
0.00304636
-0.00526827
0.00304993
-0.0060769
-0.0064807
0.000896331
0.0035835
0.00114968
0.00373855
0.00141204
0.00375872
0.00167891
0.00362706
0.0019433
0.00333655
0.00219659
0.00289296
0.00243006
0.00231461
0.00263632
0.00162808
0.00281075
0.00085924
0.00295447
2.27688e-05
0.00306821
-0.000875643
0.00315544
-0.0018217
0.00321596
-0.00277414
0.00324738
-0.00365582
0.00324812
-0.00438277
0.00322024
-0.0049006
0.00316973
-0.00520323
0.00310452
-0.00532548
0.00303199
-0.00532149
0.00295729
-0.00524406
0.0028829
-0.00513357
0.00280898
-0.00501584
0.00273434
-0.00490476
0.00265708
-0.0048058
0.0025742
-0.0047209
0.00248067
-0.00465523
0.00237108
-0.00461841
0.00224539
-0.00460978
0.00211567
-0.00459117
0.00200673
-0.00447174
0.00194729
-0.00413063
0.00195684
-0.00347472
0.00203843
-0.00249159
0.00218089
-0.00125788
0.00236692
9.52154e-05
0.00257357
0.00143154
0.00278113
0.00262763
0.00297305
0.00361246
0.00313879
0.00436475
0.00327415
0.00490469
0.00338027
0.00527448
0.0034614
0.00552153
0.00352255
0.00569625
0.00356773
0.00585948
0.00359932
0.00607671
0.00361788
0.00638242
0.003622
0.00673326
0.00360855
0.00699336
0.00357401
0.00697492
0.00351685
0.00650912
0.00343947
0.00550518
0.0033487
0.00397764
0.00325493
0.00204601
0.00317117
-8.63336e-05
0.00310736
-0.00216016
0.00306868
-0.00393623
0.00305138
-0.00525097
0.00304565
-0.00607118
-0.00647629
0.00105415
0.00333249
0.0013156
0.0034771
0.00158364
0.00349068
0.00185241
0.00335828
0.0021143
0.00307467
0.00236084
0.00264642
0.00258407
0.00209138
0.00277785
0.0014343
0.00293896
0.00069813
0.0030703
-0.000108568
0.00317209
-0.000977433
0.00324735
-0.00189696
0.00329472
-0.00282151
0.00331131
-0.0036724
0.00329618
-0.00436764
0.00325279
-0.00485721
0.00318842
-0.00513886
0.00311178
-0.00524884
0.00303038
-0.00524009
0.00294909
-0.00516277
0.00286994
-0.00505442
0.00279269
-0.0049386
0.00271583
-0.0048279
0.00263728
-0.00472725
0.00255424
-0.00463787
0.00246213
-0.00456312
0.00235532
-0.0045116
0.00223214
-0.00448659
0.00210198
-0.00446102
0.00198788
-0.00435764
0.00191943
-0.00406217
0.00191927
-0.00347456
0.00199359
-0.00256591
0.00213258
-0.00139687
0.00231914
-9.13502e-05
0.00252925
0.00122143
0.00274271
0.00241416
0.00294218
0.00341299
0.0031164
0.00419053
0.00326056
0.00476053
0.00337534
0.0051597
0.00346475
0.00543213
0.00353381
0.00562718
0.00358696
0.00580634
0.00362718
0.00603649
0.0036554
0.00635419
0.00366992
0.00671874
0.00366648
0.0069968
0.00364008
0.00700132
0.00358775
0.00656144
0.00351085
0.00558208
0.00341567
0.00407282
0.00331284
0.00214883
0.00321664
9.86628e-06
0.00313865
-0.00208217
0.00308615
-0.00388372
0.00305689
-0.00522172
0.00304173
-0.00605601
-0.00646475
0.00122806
0.00307812
0.00149208
0.00321307
0.00176048
0.00322228
0.00202642
0.00309235
0.00228192
0.00281916
0.00251883
0.00240951
0.00272999
0.00188021
0.00291052
0.00125377
0.00305857
0.000550075
0.00317772
-0.000227718
0.00326859
-0.0010683
0.00333258
-0.00196095
0.00336722
-0.00285614
0.00336933
-0.00367452
0.00333888
-0.00433719
0.00328073
-0.00479906
0.00320343
-0.00506156
0.00311631
-0.00516172
0.0030269
-0.00515068
0.00293975
-0.00507562
0.00285642
-0.0049711
0.00277634
-0.00485852
0.00269769
-0.00474924
0.00261825
-0.00464781
0.0025354
-0.00455501
0.00244503
-0.00447275
0.00234157
-0.00440814
0.00222199
-0.00436701
0.00209294
-0.00433197
0.00197504
-0.00423974
0.00189793
-0.00398506
0.00188715
-0.00346377
0.00195252
-0.00263128
0.00208661
-0.00153097
0.00227118
-0.00027592
0.0024839
0.00100872
0.00270233
0.00219574
0.00290869
0.00320663
0.003091
0.00400822
0.00324379
0.00460774
0.00336718
0.00503631
0.00346485
0.00533446
0.00354184
0.0055502
0.00360294
0.00574523
0.00365177
0.00598766
0.00368965
0.00631631
0.00371463
0.00669377
0.00372144
0.00698999
0.00370363
0.00701913
0.00365677
0.0066083
0.00358107
0.00565778
0.00348217
0.00417172
0.00337088
0.00226012
0.00326256
0.000118192
0.00317056
-0.00199016
0.0031042
-0.00381736
0.00306286
-0.00518038
0.00303812
-0.00603127
-0.00644602
0.00141278
0.00167446
0.00295139
0.00193859
0.00295816
0.0021977
0.00283324
0.00244369
0.00257317
0.00266879
0.0021844
0.00286672
0.00168229
0.00303387
0.00108662
0.00316917
0.000414775
0.00327716
-0.000335716
0.00335785
-0.00114899
0.00341107
-0.00201417
0.00343322
-0.0028783
0.00342116
-0.00366246
0.00337593
-0.00429196
0.00330386
-0.00472699
0.00321462
-0.00497232
0.00311801
-0.00506511
0.00302148
-0.00505415
0.00292917
-0.00498331
0.00284224
-0.00488417
0.00275977
-0.00477605
0.00267972
-0.00466919
0.00259975
-0.00456784
0.00251738
-0.00447264
0.00242899
-0.00438436
0.00232929
-0.00430845
0.00221423
-0.00425195
0.0020878
-0.00420554
0.00196767
-0.00411961
0.00188264
-0.00390004
0.00186066
-0.00344179
0.00191549
-0.00268611
0.00204252
-0.00165799
0.00222386
-0.000457266
0.00243757
0.000795012
0.00265993
0.00197337
0.00287249
0.00299408
0.00306246
0.00381824
0.00322364
0.00444656
0.00335554
0.00490442
0.00346145
0.00522855
0.00354634
0.00546531
0.00361535
0.00567621
0.0036727
0.00593032
0.00372015
0.00626885
0.00375558
0.00665834
0.00377282
0.00697275
0.00376401
0.00702794
0.00372325
0.00664907
0.00364949
0.00573153
0.0035477
0.00427352
0.00342866
0.00237916
0.00330855
0.000238303
0.00320286
-0.00188447
0.00312271
-0.00373722
0.00306919
-0.00512686
0.00303477
-0.00599686
-0.00642006
0.00185804
0.00269612
0.00211414
0.00270206
0.00236326
0.00258412
0.00259741
0.00233902
0.0028093
0.00197252
0.00299347
0.00149812
0.0031475
0.000932593
0.00327112
0.000291146
0.0033689
-0.000433487
0.00344005
-0.00122014
0.00348273
-0.00205685
0.0034925
-0.00288806
0.00346652
-0.00363648
0.00340711
-0.00423255
0.00332203
-0.00464191
0.00322189
-0.00487219
0.00311681
-0.00496003
0.00301403
-0.00495136
0.00291726
-0.00488653
0.00282725
-0.00479416
0.0027428
-0.0046916
0.00266171
-0.0045881
0.00258155
-0.00448768
0.00249991
-0.004391
0.00241366
-0.00429812
0.00231798
-0.00421277
0.00220815
-0.00414213
0.00208572
-0.00408311
0.00196506
-0.00399895
0.00187328
-0.00380825
0.00183993
-0.00340845
0.0018828
-0.00272897
0.00200075
-0.00177594
0.00217716
-0.000633681
0.00239035
0.000581821
0.00261553
0.0017482
0.0028335
0.0027761
0.00303065
0.00362109
0.00319995
0.00427726
0.00334022
0.00476414
0.00345431
0.00511446
0.00354706
0.00537257
0.0036239
0.00559937
0.00368961
0.0058646
0.00374647
0.00621199
0.00379226
0.00661255
0.00382003
0.00694498
0.00382057
0.00702739
0.00378651
0.00668313
0.0037155
0.00580254
0.00361164
0.00437738
0.0034856
0.0025052
0.00335436
0.000369536
0.00323531
-0.00176542
0.00314152
-0.00364343
0.00307581
-0.00506115
0.00303164
-0.00595269
-0.00638685
0.00203836
0.0024504
0.0022836
0.00245682
0.00252052
0.0023472
0.00274135
0.00211819
0.00293938
0.00177449
0.00310996
0.00132755
0.00325167
0.000790875
0.00336484
0.000177978
0.00345332
-0.000521967
0.00351531
-0.00128213
0.00354746
-0.002089
0.00354477
-0.00288537
0.00350511
-0.00359682
0.00343218
-0.00415962
0.00333507
-0.00454479
0.00322515
-0.00476227
0.00311263
-0.00484751
0.00300445
-0.00484319
0.0029039
-0.00478598
0.00281132
-0.00470159
0.00272528
-0.00460557
0.00264347
-0.00450628
0.00256338
-0.0044076
0.00248271
-0.00431033
0.00239872
-0.00421412
0.00230715
-0.0041212
0.00220304
-0.00403802
0.00208582
-0.00396589
0.0019664
-0.00387953
0.00186936
-0.00371121
0.00182497
-0.00336405
0.00185477
-0.00275877
0.00196176
-0.00188293
0.00213123
-0.000803148
0.00234238
0.000370666
0.00256914
0.00152144
0.00279169
0.00255355
0.00299546
0.00341733
0.00317256
0.00410017
0.00332105
0.00461564
0.00344323
0.00499227
0.00354375
0.00527205
0.0036283
0.00551483
0.00370219
0.00579071
0.00376821
0.00614597
0.00382418
0.00655658
0.0038625
0.00690667
0.0038727
0.00701719
0.00384592
0.00670991
0.00377845
0.00587
0.00367343
0.00448241
0.00354139
0.00263723
0.00339946
0.000511473
0.00326765
-0.00163361
0.00316047
-0.00353624
0.00308262
-0.0049833
0.00302865
-0.00589872
-0.00634637
0.00221172
0.00221649
0.00244422
0.00222433
0.00266759
0.00212383
0.00287447
0.00191131
0.00305874
0.00159022
0.00321643
0.00116985
0.00334684
0.000660468
0.00345114
7.36756e-05
0.00353083
-0.000601656
0.00358367
-0.00133497
0.00360501
-0.00211033
0.00358972
-0.00287008
0.00353665
-0.00354375
0.00345096
-0.00407392
0.00334288
-0.00443672
0.00322432
-0.0046437
0.00310541
-0.0047286
0.00299269
-0.00473047
0.00288899
-0.00468227
0.00279432
-0.00460692
0.00270704
-0.00451829
0.00262478
-0.00442402
0.00254502
-0.00432784
0.00246551
-0.00423082
0.00238384
-0.00413245
0.00229638
-0.00403373
0.00219823
-0.00393987
0.00208718
-0.00385484
0.00197075
-0.0037631
0.00187026
-0.00361073
0.00181565
-0.00330944
0.00183168
-0.00277481
0.00192585
-0.0019771
0.00208655
-0.000963848
0.00229388
0.000163336
0.00252087
0.00129445
0.00274707
0.00232736
0.00295684
0.00320756
0.00314135
0.00391565
0.00329786
0.00445914
0.00342802
0.00486211
0.00353622
0.00516384
0.00362832
0.00542274
0.00371014
0.00570888
0.00378502
0.0060711
0.00385093
0.00649067
0.00389972
0.00685788
0.00391982
0.00699709
0.00390087
0.00672886
0.00383775
0.00593313
0.00373251
0.00458764
0.00359534
0.00277441
0.00344364
0.000663173
0.00329961
-0.00148959
0.00317936
-0.003416
0.00308949
-0.00489342
0.00302572
-0.00583495
-0.00629861
0.00237593
0.001996
0.00259451
0.00200575
0.00280375
0.00191459
0.00299673
0.00171833
0.00316789
0.00141906
0.0033138
0.00102393
0.00343323
0.000541035
0.00353125
-2.43383e-05
0.00360169
-0.000672093
0.00364503
-0.00137831
0.00365506
-0.00212037
0.00362699
-0.00284201
0.00356088
-0.00347764
0.00346329
-0.00397633
0.0033454
-0.00431883
0.00321938
-0.00451768
0.00309512
-0.00460434
0.00297868
-0.00461404
0.00287244
-0.00457603
0.00277611
-0.00451059
0.00268791
-0.00443009
0.00260544
-0.00434155
0.00252623
-0.00424863
0.00244803
-0.00415262
0.00236873
-0.00405315
0.00228528
-0.00395028
0.00219314
-0.00384774
0.00208896
-0.00375065
0.00197708
-0.00365121
0.00187514
-0.00350879
0.00181164
-0.00324593
0.00181374
-0.00277691
0.00189361
-0.00205697
0.00204346
-0.0011137
0.00224518
-3.83772e-05
0.00247088
0.00106874
0.00269969
0.00209855
0.00291475
0.00299249
0.00310625
0.00372415
0.00327051
0.00429487
0.00340851
0.00472412
0.00352428
0.00504807
0.00362375
0.00532326
0.00371324
0.0056194
0.00379661
0.00598772
0.00387212
0.00641516
0.00393126
0.00679874
0.00396141
0.00696695
0.0039508
0.00673947
0.00389281
0.00599112
0.00378834
0.00469211
0.00364701
0.00291574
0.00348643
0.000823751
0.0033309
-0.00133406
0.00319802
-0.00328311
0.0030963
-0.0047917
0.00302276
-0.0057614
-0.00624357
0.00253093
0.00273481
0.00180186
0.00292974
0.00171967
0.00310923
0.00153884
0.00326817
0.00126012
0.0034035
0.000888605
0.00351394
0.000430594
0.00360373
-0.000114131
0.00366576
-0.000734119
0.003699
-0.00141155
0.00369717
-0.00211854
0.0036562
-0.00280104
0.00357756
-0.003399
0.00346907
-0.00386784
0.0033426
-0.00419236
0.00321032
-0.00438541
0.00308173
-0.00447574
0.00296236
-0.00449466
0.00285415
-0.00446782
0.00275656
-0.004413
0.00266773
-0.00434126
0.00258527
-0.00425909
0.00250676
-0.00417011
0.00243002
-0.00407589
0.00235311
-0.00397624
0.00227353
-0.0038707
0.00218727
-0.00376148
0.00209034
-0.00365372
0.00198436
-0.00354523
0.00188304
-0.00340747
0.00181242
-0.00317531
0.00180103
-0.00276552
0.00186555
-0.00212149
0.00200322
-0.00125137
0.00219592
-0.000231082
0.00241939
0.000845282
0.00264965
0.00186829
0.00286922
0.00277292
0.0030672
0.00352617
0.00323892
0.00412316
0.00338457
0.00457847
0.00350776
0.00492488
0.00361443
0.00521659
0.00371127
0.00552256
0.00380274
0.00589625
0.00388746
0.00633043
0.00395672
0.00672948
0.00399701
0.00692666
0.00399518
0.0067413
0.0039431
0.0060432
0.00384037
0.00479485
0.00369589
0.00306021
0.00352757
0.000992076
0.00336122
-0.00116771
0.00321622
-0.00313811
0.00310292
-0.0046784
0.00301967
-0.00567816
-0.00618129
0.00286722
0.00161347
0.00304769
0.0015392
0.00321404
0.00137249
0.00336145
0.00111272
0.00348702
0.000763035
0.00358878
0.000328826
0.0036698
-0.000195151
0.00372277
-0.000787086
0.00374508
-0.00143386
0.0037308
-0.00210427
0.00367699
-0.00274722
0.00358651
-0.00330853
0.00346827
-0.00374959
0.0033345
-0.00405859