/*--------------------------------*- C++ -*----------------------------------*\
  =========                 |
  \\      /  F ield         | OpenFOAM: The Open Source CFD Toolbox
   \\    /   O peration     | Website:  https://openfoam.org
    \\  /    A nd           | Version:  7
     \\/     M anipulation  |
\*---------------------------------------------------------------------------*/
FoamFile
{
    version     2.0;
    format      ascii;
    class       volScalarField;
    location    "2.5";
    object      p;
}
// * * * * * * * * * * * * * * * * * * * * * * * * * * * * * * * * * * * * * //

dimensions      [1 -1 -2 0 0 0 0];

internalField   nonuniform List<scalar> 
4032
(
1
1
1
1
1
1
1
1
1
1
1
1
6.09651
10.5892
10.7652
10.9538
11.1442
11.3226
11.4911
11.6474
11.7896
11.9064
11.9973
12.063
1
1
1
1
1
1
1
1
1
1
1
1
5.92412
10.5267
10.739
10.925
11.115
11.2896
11.4529
11.602
11.7363
11.8456
11.9295
11.9919
1
1
1
1
1
1
1
1
1
1
1
1
5.56976
10.4476
10.6897
10.8722
11.0621
11.2329
11.391
11.5328
11.6585
11.7606
11.8359
11.8979
1
1
1
1
1
1
1
1
1
1
1
1
5.0562
10.3113
10.623
10.8007
10.99
11.1561
11.3084
11.4422
11.5564
11.6427
11.6949
11.7333
1
1
1
1
1
1
1
1
1
1
1
1
4.40198
10.0785
10.5334
10.7022
10.8837
11.0363
11.1714
11.2837
11.3737
11.4448
11.4859
11.541
1
1
1
1
1
1
1
1
1
1
1
1
3.64232
9.70735
10.4312
10.5906
10.7615
10.8952
11.0074
11.0991
11.1705
11.2247
11.2308
11.1889
1
1
1
1
1
1
1
1
1
1
1
1
2.79588
9.14961
10.3691
10.5068
10.6494
10.7521
10.8284
10.8767
10.8798
10.8306
10.7482
10.6959
1
1
1
1
1
1
1
1
1
1
1
1
1.90699
8.32388
10.3117
10.3753
10.5071
10.5888
10.6274
10.6197
10.5542
10.4482
10.3001
10.2734
1
1
1
1
1
1
1
1
1
1
1
1
1.11495
7.24967
10.3577
10.2978
10.3326
10.3589
10.3487
10.2954
10.1429
9.86022
9.08624
7.21942
1
1
1
1
1
1
1
1
1
1
1
1
1.00145
5.75426
9.78046
9.91116
10.0081
10.0489
10.0132
9.91431
9.67414
9.20283
8.39973
6.32745
1
1
1
1
1
1
1
1
1
1
1
1
0.999982
4.03498
9.26738
9.78119
9.8283
9.82248
9.73653
9.56918
9.25552
8.68217
7.83371
5.91599
1
1
1
1
1
1
1
1
1
1
1
1
0.999996
2.31679
8.37444
9.68247
9.67653
9.61028
9.46813
9.23916
8.86212
8.28951
7.35132
5.80531
1
1
1
1
1
1
1
1
1
1
1
1
0.999999
1.16997
6.86481
9.6045
9.4932
9.37007
9.18504
8.92825
8.5287
7.97382
7.0444
5.85829
1
1
1
1
1
1
1
1
1
1
1
1
1
1.00241
4.84996
9.05616
9.16014
9.06537
8.89798
8.63661
8.26143
7.70749
6.87146
5.93476
1
1
1
1
1
1
1
1
1
1
1
1
1
0.999976
2.46337
8.21029
9.05023
8.90627
8.71346
8.43068
8.0696
7.50754
6.78985
6.02434
1
1
1
1
1
1
1
1
1
1
1
1
1
0.999994
1.16775
6.37265
8.86025
8.70936
8.53631
8.24564
7.88173
7.35886
6.74174
6.08647
1
1
1
1
1
1
1
1
1
1
1
1
1
0.999999
1.00204
3.68208
8.20955
8.53834
8.37043
8.11212
7.73796
7.25809
6.71419
6.13582
1
1
1
1
1
1
1
1
1
1
1
1
1
1
0.999991
1.45929
6.92299
8.57329
8.28852
8.01889
7.6346
7.17017
6.67223
6.15207
1
1
1
1
1
1
1
1
1
1
1
1
1
1
0.999998
1.01739
4.45515
8.02777
8.10447
7.86512
7.51414
7.08605
6.62834
6.15552
1
1
1
1
1
1
1
1
1
1
1
1
1
1
1
1
1.73915
6.85765
8.1475
7.79061
7.43427
7.03589
6.62356
6.1892
1
1
1
1
1
1
1
1
1
1
1
1
1
1
1
0.999999
1.04277
4.49836
7.76112
7.6388
7.33105
6.9804
6.60642
6.21085
1
1
1
1
1
1
1
1
1
1
1
1
1
1
1
1
1.00018
1.7813
6.43652
7.65614
7.30312
6.96634
6.60492
6.23692
1
1
1
1
1
1
1
1
1
1
1
1
1
1
1
1
1
1.0461
3.87097
7.26625
7.21945
6.91347
6.58374
6.24427
1
1
1
1
1
1
1
1
1
1
1
1
1
1
1
1
1
1.00032
1.55248
5.67715
7.26682
6.91437
6.60451
6.28
1
1
1
1
1
1
1
1
1
1
1
1
1
1
1
1
1
1
1.02413
2.82023
6.42799
6.88935
6.61202
6.30665
1
1
1
1
1
1
1
1
1
1
1
1
1
1
1
1
1
1
1.00019
1.23506
4.40752
6.81446
6.66782
6.37211
1
1
1
1
1
1
1
1
1
1
1
1
1
1
1
1
1
1
1
1.00555
1.86629
5.49772
6.65016
6.40906
1
1
1
1
1
1
1
1
1
1
1
1
1
1
1
1
1
1
1
1.00003
1.0576
2.8474
5.96264
6.44896
1
1
1
1
1
1
1
1
1
1
1
1
1
1
1
1
1
1
1
1
1.00076
1.24373
3.92819
6.15281
1
1
1
1
1
1
1
1
1
1
1
1
1
1
1
1
1
1
1
1
1
1.00669
1.65524
4.69586
1
1
1
1
1
1
1
1
1
1
1
1
1
1
1
1
1
1
1
1
1
1.00005
1.03611
2.20983
1
1
1
1
1
1
1
1
1
1
1
1
1
1
1
1
1
1
1
1
1
1
1.00045
1.11334
1
1
1
1
1
1
1
1
1
1
1
1
1
1
1
1
1
1
1
1
1
1
1
1.00225
1
1
1
1
1
1
1
1
1
1
1
1
1
1
1
1
1
1
1
1
1
1
1
1.00001
1
1
1
1
1
1
1
1
1
1
1
1
1
1
1
1
1
1
1
1
1
1
1
1
1
1
1
1
1
1
1
1
1
1
1
1
1
1
1
1
1
1
1
1
1
1
1
1
1
1
1
1
1
1
1
1
1
1
1
1
1
1
1
1
1
1
1
1
1
1
1
1
1
1
1
1
1
1
1
1
1
1
1
1
1
1
1
1
1
1
1
1
1
1
1
1
1
1
1
1
1
1
1
1
1
1
1
1
1
1
1
1
1
1
1
1
1
1
1
1
1
1
1
1
1
1
1
1
1
1
1
1
1
1
1
1
1
1
1
1
1
1
1
1
1.62859
0.439379
0.127667
0.127789
0.169925
0.254697
0.380514
0.521213
0.695347
0.820742
0.913862
0.974622
1.03558
1.12843
1.21449
1.26308
1.2946
1.27125
1.2345
1.23392
1.26878
1.30861
1.3195
1.31507
1.28715
1.26715
1.27017
1.29911
1.34135
1.35475
1.35179
1.33041
1.30442
1.29475
1.29609
1.34419
1.79348
4.65167
6.99262
6.90389
6.71656
6.55221
6.31427
6.08754
5.87031
5.69615
5.58295
5.52228
5.46015
5.33741
5.21118
5.09518
4.99023
4.89796
4.79493
4.68631
4.56891
4.46564
4.38389
4.31457
4.26661
4.20617
4.12595
4.04122
3.9401
3.82404
3.72444
3.65659
3.60487
3.56203
3.53088
3.49355
3.44623
3.38304
3.27993
3.16333
3.09484
3.0544
3.01973
2.99166
2.97263
2.94558
2.90901
2.85258
2.74453
2.62676
2.57134
2.54199
2.51751
2.50429
2.50402
2.48692
2.45655
2.40755
2.31526
2.19998
2.71042
1.47137
0.91393
0.634151
0.55606
0.520901
0.511384
0.529384
0.542449
0.570824
0.622819
0.698597
0.793431
0.903408
1.02033
1.10199
1.15164
1.1928
1.20922
1.21937
1.2412
1.265
1.28156
1.29819
1.29951
1.2895
1.28818
1.29994
1.31005
1.32198
1.33386
1.33269
1.32418
1.30757
1.33447
1.63326
2.33061
3.69494
5.93606
6.44993
6.47488
6.34551
6.1289
5.96344
5.85798
5.72882
5.60476
5.48881
5.38158
5.27432
5.17396
5.07902
4.98867
4.89781
4.79459
4.68712
4.57279
4.46338
4.37434
4.29616
4.22864
4.16502
4.09924
4.02817
3.94842
3.85934
3.76474
3.67735
3.61169
3.56248
3.51678
3.47216
3.42569
3.37009
3.29148
3.19403
3.1098
3.05833
3.02268
2.99145
2.96298
2.93129
2.89245
2.83976
2.76019
2.66261
2.58639
2.54629
2.52155
2.50182
2.48478
2.46555
2.43757
2.39753
2.33449
2.2271
3.61559
2.37732
1.68836
1.28018
1.03821
0.838494
0.679585
0.633423
0.612312
0.593528
0.604372
0.657118
0.724022
0.776003
0.851194
0.936878
1.00635
1.09207
1.188
1.2335
1.25158
1.25549
1.26035
1.27585
1.3078
1.33145
1.34072
1.33794
1.31052
1.29006
1.28701
1.29663
1.31893
1.38322
1.63851
2.44302
3.02078
3.17124
4.14424
5.57915
6.41903
6.38753
6.23264
6.06011
5.87973
5.76902
5.65892
5.51512
5.35689
5.24259
5.14866
5.06632
4.99199
4.90298
4.80891
4.70902
4.59936
4.49388
4.3991
4.30373
4.2069
4.11889
4.04019
3.97293
3.91693
3.86239
3.8039
3.73121
3.64714
3.57131
3.50913
3.45191
3.39209
3.32839
3.27006
3.21167
3.1446
3.07579
3.02547
2.98709
2.94924
2.90827
2.85974
2.80279
2.74786
2.69537
2.6364
2.5709
2.52126
2.49206
2.46618
2.43643
2.40176
2.36167
2.32309
2.25678
4.22055
3.15926
2.38739
1.8455
1.55645
1.32187
1.05249
0.878601
0.854316
0.825992
0.777999
0.732428
0.711228
0.706772
0.727022
0.772553
0.837585
0.937153
1.05571
1.12433
1.15354
1.17344
1.19319
1.22469
1.27898
1.34014
1.35902
1.35262
1.32333
1.28789
1.27478
1.28045
1.33595
1.65139
2.39006
3.05431
3.28241
3.22164
3.28307
3.91974
5.15433
5.82171
6.09363
6.10843
5.91996
5.77318
5.62443
5.48597
5.33618
5.20058
5.11176
5.03542
4.9655
4.88117
4.79625
4.70071
4.59098
4.48494
4.39052
4.29938
4.20477
4.10871
4.02438
3.96036
3.90711
3.85883
3.80859
3.75067
3.67291
3.57808
3.49898
3.43372
3.36893
3.31047
3.26376
3.21917
3.16698
3.09767
3.02465
2.97232
2.92902
2.88045
2.82337
2.77227
2.73847
2.70801
2.67086
2.61491
2.5426
2.48562
2.44696
2.41012
2.3702
2.33076
2.30515
2.26618
4.67725
3.76389
3.02432
2.39664
2.01168
1.75722
1.51132
1.241
1.05209
0.997764
0.951606
0.899545
0.851954
0.791794
0.745418
0.73895
0.744676
0.778458
0.851416
0.939284
1.00095
1.05646
1.11313
1.15669
1.21399
1.27575
1.30587
1.31355
1.31412
1.29864
1.29224
1.32053
1.59721
2.41726
3.01679
3.27996
3.33821
3.30376
3.23077
3.21577
3.60017
4.5626
5.43165
5.89941
5.91433
5.82803
5.65166
5.48928
5.33506
5.18224
5.07559
4.99765
4.92345
4.84485
4.76717
4.68485
4.58992
4.48663
4.38264
4.28104
4.17988
4.08601
4.01278
3.95627
3.9073
3.86116
3.81238
3.75779
3.68352
3.5729
3.46348
3.39626
3.35005
3.31089
3.27343
3.23433
3.1887
3.12339
3.02996
2.94316
2.88354
2.83423
2.79496
2.76726
2.74539
2.71994
2.68883
2.64662
2.5762
2.48492
2.41845
2.37539
2.34157
2.31775
2.3018
2.2675
4.97356
4.1802
3.5253
2.92875
2.4394
2.09937
1.86522
1.65579
1.4533
1.22523
1.10598
1.07908
1.05049
0.9897
0.90836
0.829678
0.7815
0.77906
0.789735
0.805523
0.834785
0.876541
0.947641
1.0267
1.09224
1.15328
1.20402
1.26261
1.27619
1.27515
1.32727
1.59317
2.43806
3.06574
3.25804
3.32243
3.32752
3.27118
3.2018
3.12133
3.09241
3.29266
4.03758
5.14795
5.6031
5.68578
5.64966
5.50786
5.37597
5.21537
5.06248
4.94244
4.85632
4.7873
4.72658
4.66165
4.58302
4.49494
4.3955
4.28646
4.17911
4.08856
4.01829
3.95828
3.90195
3.84723
3.7943
3.7398
3.67164
3.5708
3.45315
3.38273
3.34194
3.30582
3.27378
3.23786
3.19773
3.14013
3.03886
2.91476
2.83832
2.79975
2.77222
2.75382
2.74721
2.72907
2.70154
2.66921
2.61102
2.4976
2.38808
2.34365
2.32237
2.30572
2.30066
2.27162
5.22792
4.51901
3.88891
3.3277
2.8869
2.5027
2.12135
1.90997
1.76775
1.58577
1.39729
1.22963
1.16101
1.12256
1.067
0.998823
0.932073
0.852917
0.809706
0.80904
0.816059
0.844577
0.871981
0.898055
0.929679
0.973824
1.02905
1.10633
1.16658
1.23716
1.60931
2.34662
3.15527
3.30272
3.33877
3.33014
3.2822
3.20218
3.14727
3.08955
3.05323
3.02504
3.12479
3.69262
4.6395
5.24684
5.49037
5.46289
5.39601
5.27213
5.12007
4.96274
4.80646
4.72205
4.66943
4.6317
4.57021
4.49701
4.4092
4.30159
4.18629
4.09007
4.02218
3.96325
3.90126
3.83398
3.76454
3.69777
3.63106
3.55151
3.45805
3.38221
3.33552
3.29726
3.26161
3.22558
3.18582
3.13086
3.03472
2.90095
2.82102
2.79019
2.76407
2.74385
2.73791
2.72337
2.69485
2.66537
2.61747
2.5183
2.39382
2.33539
2.31342
2.29399
2.28492
2.26279
5.39522
4.7645
4.19175
3.63613
3.20188
2.8496
2.48263
2.16911
1.95773
1.82074
1.68318
1.53052
1.36111
1.22998
1.19092
1.16087
1.11271
1.03611
0.93511
0.869911
0.855259
0.858296
0.868115
0.876599
0.874652
0.87075
0.881661
0.928054
0.997771
1.34109
2.16198
2.84547
3.22529
3.2668
3.26424
3.2237
3.18703
3.15158
3.12783
3.08906
3.04612
3.00593
2.95682
2.98714
3.29508
4.03494
4.83326
5.14574
5.27758
5.30276
5.16644
5.02602
4.83065
4.68913
4.61852
4.56683
4.53602
4.48414
4.41328
4.32482
4.20731
4.08417
4.00662
3.95121
3.89458
3.83234
3.7607
3.67827
3.59258
3.51596
3.44926
3.38626
3.32803
3.27842
3.23576
3.19553
3.15403
3.10291
3.02818
2.92759
2.83579
2.78912
2.76181
2.73761
2.719
2.70818
2.68684
2.65101
2.60049
2.52693
2.43848
2.35709
2.31062
2.28612
2.27261
2.25214
5.524
4.95311
4.42735
3.91869
3.48048
3.10773
2.77788
2.49114
2.24073
1.99892
1.85261
1.75683
1.62662
1.47565
1.3277
1.25071
1.21682
1.17179
1.10755
1.03669
0.966292
0.903257
0.877711
0.8824
0.887388
0.882059
0.882339
0.894821
1.12867
1.8879
2.42893
2.73692
2.96706
2.99768
2.99407
3.00953
3.05391
3.07345
3.07061
3.05568
3.02874
2.97789
2.9329
2.89159
2.84403
2.96984
3.50859
4.26818
4.84371
5.10007
5.13256
5.05539
4.91118
4.73557
4.58456
4.51324
4.46695
4.44462
4.39859
4.33082
4.23566
4.0942
3.97404
3.9148
3.86587
3.81556
3.75887
3.68749
3.5981
3.50307
3.42335
3.36629
3.31498
3.26236
3.2129
3.16551
3.11626
3.06563
3.01686
2.96261
2.88772
2.80536
2.76237
2.73789
2.71212
2.67829
2.63616
2.59078
2.54752
2.5103
2.46808
2.40857
2.34216
2.29178
2.26776
2.23297
5.60693
5.09278
4.60262
4.14108
3.73551
3.35567
3.00035
2.73823
2.51623
2.27382
2.04536
1.88995
1.78631
1.6822
1.56394
1.44072
1.30725
1.24949
1.23078
1.19189
1.13244
1.05395
0.962979
0.925396
0.919692
0.908056
0.923961
1.09588
1.75076
2.31854
2.50256
2.53157
2.55515
2.57965
2.61974
2.67289
2.73233
2.81505
2.8946
2.92522
2.91788
2.9273
2.90666
2.86779
2.80614
2.72532
2.76248
3.0509
3.68134
4.40273
4.80571
4.94783
4.94566
4.80819
4.61762
4.47012
4.40218
4.37063
4.35661
4.30887
4.24184
4.1288
3.96837
3.86132
3.81007
3.77138
3.73243
3.68416
3.62377
3.54014
3.43391
3.33494
3.27031
3.22594
3.18346
3.13737
3.08943
3.04687
3.01166
2.97576
2.92876
2.85876
2.77554
2.70805
2.66244
2.62608
2.58928
2.5502
2.51563
2.49091
2.46802
2.43612
2.38493
2.31881
2.26965
2.21547
5.67524
5.21127
4.75559
4.33186
3.94655
3.58521
3.24593
2.95649
2.71068
2.49504
2.29228
2.11756
1.93559
1.78783
1.71827
1.6342
1.50827
1.38363
1.31333
1.27615
1.24204
1.19692
1.13033
1.0364
0.981006
0.977676
1.11958
1.72101
2.4357
2.59112
2.55266
2.49179
2.44417
2.40227
2.38277
2.36425
2.35088
2.39195
2.46229
2.55256
2.64558
2.73264
2.76721
2.76266
2.72942
2.67911
2.63347
2.60876
2.72222
3.17225
3.87351
4.47674
4.72074
4.74322
4.6648
4.47524
4.35593
4.30268
4.27926
4.26254
4.21513
4.14324
4.01192
3.84786
3.75895
3.7155
3.68201
3.65179
3.60999
3.55758
3.47762
3.35837
3.24542
3.17693
3.13399
3.09797
3.06597
3.03718
3.00879
2.97845
2.94345
2.89054
2.79853
2.69365
2.62762
2.58378
2.54733
2.52098
2.50094
2.48254
2.46235
2.4383
2.40305
2.34511
2.27842
2.19783
5.7518
5.31517
4.88443
4.49613
4.12583
3.76324
3.45003
3.17778
2.91739
2.66283
2.4698
2.3109
2.14158
1.96577
1.82974
1.74451
1.6566
1.56218
1.48043
1.38798
1.30245
1.27713
1.24358
1.17646
1.13903
1.28602
1.87727
2.6035
2.78876
2.70526
2.60724
2.52177
2.47094
2.4324
2.39024
2.3486
2.30697
2.2574
2.22034
2.22778
2.27275
2.33877
2.4109
2.48131
2.53111
2.54575
2.53102
2.49048
2.48398
2.53492
2.77774
3.32543
3.95208
4.37437
4.50227
4.46997
4.35096
4.25459
4.20958
4.198
4.1651
4.11522
4.04074
3.90345
3.74432
3.65996
3.6185
3.58763
3.56067
3.52345
3.47774
3.40676
3.2864
3.15321
3.08567
3.05469
3.0299
3.0099
2.98957
2.96349
2.93182
2.88776
2.81077
2.69777
2.60225
2.55103
2.52424
2.50563
2.48865
2.47228
2.45213
2.42958
2.40027
2.34909
2.28004
2.18415
5.80063
5.38745
4.99609
4.63083
4.27316
3.93165
3.63819
3.35694
3.09221
2.85266
2.6585
2.46304
2.29469
2.14085
2.00869
1.88749
1.76378
1.67801
1.62188
1.54693
1.44421
1.34453
1.30747
1.29695
1.45558
2.12538
2.89622
3.06695
2.96601
2.84451
2.73529
2.65518
2.58012
2.50911
2.44499
2.38725
2.324
2.24229
2.18543
2.16011
2.14137
2.12332
2.1164
2.13533
2.17463
2.22182
2.25253
2.29532
2.31309
2.32009
2.34915
2.46371
2.81539
3.35826
3.8711
4.20502
4.24782
4.18859
4.15183
4.12785
4.11472
4.07828
4.02366
3.93883
3.803
3.6495
3.56072
3.51814
3.4858
3.46805
3.43926
3.39838
3.33008
3.19615
3.06759
3.02154
2.99437
2.97026
2.94856
2.92455
2.8965
2.85891
2.79813
2.70148
2.60387
2.54493
2.51531
2.49678
2.47985
2.46189
2.44182
2.41693
2.38081
2.32289
2.25785
2.16771
5.85335
5.4655
5.10419
4.75452
4.4044
4.08966
3.80409
3.52778
3.25237
3.03036
2.83004
2.63537
2.44607
2.29394
2.16737
2.04221
1.92057
1.80013
1.70908
1.65164
1.57284
1.47878
1.43987
1.6075
2.32106
3.17699
3.36762
3.26389
3.1376
3.0263
2.90338
2.78298
2.68758
2.61356
2.55035
2.48828
2.42269
2.33458
2.23594
2.16163
2.11871
2.08714
2.06449
2.04609
2.02734
2.00274
1.97947
1.98768
2.00104
2.02671
2.07272
2.10228
2.16804
2.37193
2.74377
3.2625
3.75906
4.00372
3.99495
4.02669
4.06331
4.03662
3.98532
3.91842
3.8254
3.68922
3.53939
3.46214
3.42828
3.40771
3.38862
3.35411
3.31425
3.2424
3.10725
3.00044
2.96111
2.93301
2.90532
2.87912
2.85329
2.82111
2.7727
2.69876
2.61572
2.55583
2.51975
2.4922
2.46697
2.44322
2.42201
2.3994
2.36459
2.30481
2.22513
2.13578
5.8917
5.54356
5.20221
4.8584
4.52811
4.23795
3.95337
3.67276
3.41448
3.20064
2.98649
2.7892
2.59929
2.45605
2.30909
2.17353
2.05376
1.95128
1.84623
1.73476
1.65434
1.62445
1.83626
2.63918
3.50128
3.67591
3.56005
3.42232
3.30632
3.18214
3.04113
2.92304
2.83317
2.75882
2.68986
2.61993
2.54347
2.44794
2.33543
2.23599
2.16794
2.12
2.07562
2.03188
1.99226
1.95674
1.92758
1.88621
1.83319
1.80972
1.81698
1.83201
1.84113
1.87588
1.96885
2.1773
2.58654
3.13692
3.55582
3.82511
3.86561
3.92501
3.93438
3.89748
3.80425
3.69905
3.57459
3.45803
3.39817
3.36227
3.33068
3.31057
3.28377
3.23605
3.14424
3.0179
2.93567
2.89534
2.86362
2.83639
2.81181
2.78457
2.74716
2.69421
2.62552
2.55932
2.51548
2.48506
2.45811
2.43004
2.39661
2.35602
2.31389
2.26909
2.20493
2.12711
5.9456
5.62238
5.2982
4.96333
4.65498
4.37042
4.09215
3.80753
3.57382
3.35166
3.14134
2.92828
2.75601
2.60377
2.45105
2.31359
2.17814
2.07525
1.96406
1.85448
1.80892
2.04542
2.95542
3.87393
4.00708
3.87749
3.7213
3.59035
3.46468
3.31825
3.17547
3.06536
2.9755
2.89297
2.81356
2.73281
2.64438
2.54055
2.42191
2.32324
2.25579
2.19787
2.14367
2.09077
2.04014
1.98576
1.92597
1.86254
1.80135
1.77096
1.75362
1.72607
1.70217
1.69549
1.68294
1.6905
1.76083
1.9699
2.39386
2.97146
3.36295
3.6225
3.75454
3.74955
3.7372
3.68288
3.59261
3.49721
3.41449
3.34727
3.30179
3.25508
3.1991
3.15871
3.11803
3.04267
2.94233
2.86834
2.82526
2.79416
2.77055
2.74967
2.72557
2.69116
2.63747
2.56313
2.49712
2.4576
2.43062
2.40594
2.37232
2.32534
2.27424
2.22181
2.18184
2.13151
5.99807
5.68883
5.37189
5.06207
4.77456
4.48697
4.19879
3.9391
3.71478
3.48929
3.2711
3.06309
2.90609
2.73729
2.58586
2.43414
2.31434
2.18179
2.06525
2.02395
2.32066
3.34042
4.28351
4.36301
4.20561
4.02872
3.88539
3.75379
3.60721
3.45509
3.31847
3.20522
3.10643
3.01559
2.92967
2.84504
2.75664
2.6562
2.5361
2.41835
2.3342
2.27023
2.21286
2.15751
2.10105
2.04068
1.9748
1.89467
1.81548
1.76162
1.72608
1.6924
1.67055
1.65824
1.63192
1.60634
1.57857
1.56106
1.60453
1.78299
2.20623
2.7201
3.2523
3.41265
3.54801
3.57443
3.55794
3.51773
3.42952
3.34901
3.29023
3.23123
3.16549
3.11183
3.06646
3.01711
2.94582
2.86053
2.80169
2.76613
2.73477
2.70933
2.68928
2.6675
2.63421
2.57436
2.49096
2.43149
2.40607
2.3851
2.35198
2.30227
2.2502
2.20299
2.17526
2.13075
6.07463
5.76861
5.45103
5.15395
4.8732
4.5932
4.30809
4.06904
3.83752
3.61862
3.39125
3.21169
3.04036
2.87254
2.70879
2.56155
2.42504
2.29263
2.2737
2.63981
3.78634
4.72159
4.78127
4.59706
4.38725
4.21615
4.0651
3.9109
3.75019
3.59341
3.45343
3.33287
3.22746
3.13107
3.03861
2.94654
2.85115
2.74659
2.62654
2.50457
2.4141
2.349
2.29044
2.23201
2.17144
2.10867
2.04016
1.95782
1.87125
1.80313
1.75266
1.71409
1.68395
1.64917
1.61016
1.577
1.54465
1.5137
1.4805
1.45794
1.49509
1.64441
2.03874
2.53266
3.05662
3.28359
3.35168
3.37285
3.35703
3.34015
3.30185
3.23833
3.16576
3.0963
3.03949
2.98931
2.93334
2.86556
2.79519
2.74096
2.70767
2.68874
2.67885
2.66458
2.6331
2.57518
2.50473
2.43193
2.36664
2.31873
2.28464
2.2561
2.22931
2.20355
2.17954
2.12938
6.10625
5.80511
5.50323
5.22316
4.95152
4.66911
4.41131
4.18828
3.96091
3.72985
3.51643
3.34778
3.16485
2.99805
2.82527
2.66982
2.52799
2.52437
3.03374
4.31922
5.23996
5.17207
4.93035
4.70308
4.54496
4.39687
4.23969
4.07489
3.90372
3.72908
3.56998
3.43992
3.33212
3.23565
3.14372
3.05183
2.95457
2.84467
2.71629
2.58339
2.48535
2.41977
2.36206
2.30479
2.24523
2.17991
2.10339
2.01311
1.91991
1.85015
1.80072
1.76072
1.72184
1.6797
1.63837
1.59573
1.5484
1.49406
1.44791
1.42176
1.40372
1.39018
1.41703
1.55265
1.88002
2.37853
2.83046
3.13773
3.15836
3.19502
3.21186
3.20135
3.16731
3.10095
3.02727
2.97045
2.91686
2.85319
2.79086
2.74704
2.71227
2.67602
2.63772
2.60064
2.56938
2.54577
2.50433
2.43433
2.35349
2.28969
2.25177
2.23309
2.21804
2.19989
2.17933
2.1269
6.16784
5.85629
5.57165
5.30459
5.0416
4.76937
4.52735
4.30793
4.07825
3.8359
3.65088
3.47404
3.29459
3.11177
2.93213
2.77024
2.82162
3.47331
4.99035
5.80446
5.69098
5.39143
5.08541
4.87049
4.71828
4.56696
4.40734
4.24153
4.06267
3.86735
3.68545
3.54584
3.43376
3.33232
3.23565
3.13997
3.04001
2.92933
2.80329
2.67087
2.56033
2.48055
2.41481
2.35407
2.29532
2.23431
2.16454
2.08143
1.98983
1.90628
1.84057
1.79263
1.75465
1.7196
1.68351
1.64137
1.59124
1.52725
1.46475
1.41474
1.37939
1.35371
1.34564
1.34062
1.35663
1.47119
1.73445
2.17134
2.58506
2.88749
3.07797
3.10245
3.07939
3.04632
2.99119
2.92929
2.8617
2.80854
2.78666
2.76057
2.72315
2.66933
2.61516
2.57517
2.53637
2.48461
2.4338
2.39347
2.34596
2.29261
2.25716
2.23317
2.20919
2.18142
2.16492
2.12353
6.23227
5.95283
5.65372
5.39092
5.13384
4.86752
4.63043
4.41309
4.18469
3.95088
3.76897
3.57773
3.40371
3.21288
3.02528
3.10767
4.02497
5.59464
6.41951
6.20935
5.83048
5.51912
5.27759
5.08015
4.90163
4.7266
4.55132
4.37505
4.19149
3.99792
3.81199
3.65801
3.53228
3.41989
3.31361
3.20979
3.10436
2.99383
2.87713
2.75816
2.6488
2.55835
2.4807
2.40824
2.33829
2.2696
2.20053
2.12863
2.05335
1.9804
1.91316
1.84872
1.78955
1.74256
1.70567
1.6708
1.63313
1.58654
1.53168
1.46511
1.40253
1.35787
1.3342
1.31148
1.30064
1.29241
1.2913
1.35309
1.57179
1.93216
2.37939
2.70259
2.92515
2.98017
2.97251
2.93222
2.86044
2.7942
2.7433
2.69856
2.65967
2.63283
2.6051
2.56766
2.5152
2.45471
2.39533
2.34323
2.30903
2.29148
2.27322
2.24852
2.21374
2.17208
2.13164
2.06976
6.13215
6.03788
5.75082
5.47677
5.21589
4.96152
4.73526
4.51786
4.27403
4.06281
3.878
3.69586
3.50277
3.3031
3.44019
4.60023
6.25769
6.98652
6.83232
6.40936
6.01401
5.69343
5.45505
5.26047
5.06523
4.87255
4.68294
4.49494
4.30922
4.12733
3.95028
3.78412
3.63656
3.50585
3.38535
3.27055
3.15866
3.04847
2.93983
2.83228
2.72745
2.63045
2.54296
2.46156
2.38211
2.30195
2.22153
2.14526
2.07769
2.01851
1.96301
1.90695
1.8503
1.79507
1.74036
1.68749
1.63846
1.59791
1.55861
1.51026
1.45595
1.40926
1.36915
1.32918
1.30067
1.27235
1.2495
1.22191
1.20958
1.24884
1.44254
1.7741
2.23761
2.53699
2.7649
2.83076
2.82514
2.79761
2.74057
2.67951
2.63876
2.59647
2.53907
2.48736
2.45667
2.42196
2.36569
2.32027
2.30391
2.28735
2.26092
2.21804
2.17182
2.13186
2.09987
2.04376
5.16663
6
5.8416
5.56783
5.30431
5.05557
4.83189
4.61161
4.37915
4.17381
3.97622
3.79995
3.61144
3.83601
5.31224
7.00716
7.31667
7.1981
6.87346
6.56541
6.24931
5.92798
5.64306
5.40479
5.19706
4.99772
4.80105
4.60836
4.42245
4.24303
4.06636
3.89328
3.73249
3.58918
3.45934
3.33724
3.21987
3.10675
2.99786
2.89212
2.78823
2.68786
2.59424
2.50765
2.42609
2.34785
2.27134
2.19527
2.11971
2.04761
1.98336
1.92842
1.88004
1.83331
1.78449
1.7337
1.6822
1.62995
1.57113
1.51241
1.47202
1.44162
1.40852
1.37183
1.33473
1.29918
1.25789
1.21195
1.18146
1.15468
1.15222
1.18716
1.34314
1.66704
2.07617
2.38378
2.54975
2.65694
2.66589
2.66655
2.64887
2.59216
2.52222
2.466
2.41187
2.36635
2.34105
2.32974
2.31791
2.29448
2.25539
2.20088
2.1544
2.11181
2.0687
2.01753
2.816
5.40628
5.87573
5.68299
5.39972
5.14679
4.93175
4.70546
4.48673
4.25919
4.08695
3.93646
4.318
6.01393
7.96247
8.19594
7.74646
7.25229
6.94977
6.73102
6.4653
6.15972
5.85128
5.57486
5.34022
5.12686
4.92277
4.72628
4.53689
4.35148
4.16661
3.98456
3.81443
3.66302
3.52813
3.40363
3.28482
3.16942
3.05619
2.94468
2.83554
2.73077
2.63303
2.54317
2.46072
2.38479
2.31245
2.24012
2.16593
2.0909
2.01839
1.95006
1.88701
1.83272
1.79035
1.75433
1.714
1.6651
1.61166
1.55875
1.50551
1.45332
1.41531
1.39329
1.37304
1.34486
1.30108
1.25259
1.20435
1.15901
1.13336
1.12186
1.11689
1.14656
1.26009
1.54218
1.9009
2.21179
2.34805
2.4976
2.5385
2.53748
2.5205
2.47145
2.39673
2.35451
2.33388
2.30804
2.27371
2.24174
2.21824
2.19311
2.15426
2.10085
2.05244
1.9926
1.25475
3.3864
5.4717
5.74214
5.52676
5.2496
5.01551
4.80617
4.565
4.37003
4.27891
4.85931
6.88259
8.63811
8.69257
8.35558
7.88819
7.46138
7.13984
6.88645
6.6196
6.33556
6.04322
5.75428
5.48898
5.2519
5.03586
4.83402
4.64014
4.44825
4.25605
4.06732
3.89061
3.73198
3.59066
3.46204
3.34109
3.22348
3.10673
2.99036
2.87614
2.76754
2.66772
2.57739
2.4954
2.41912
2.34432
2.26801
2.19096
2.11668
2.0468
1.98228
1.92582
1.8768
1.82901
1.77512
1.71309
1.65275
1.61001
1.577
1.53807
1.49492
1.45619
1.41602
1.3703
1.32811
1.29962
1.26921
1.23034
1.18816
1.1505
1.12308
1.10621
1.0913
1.0761
1.09326
1.17832
1.39022
1.69538
2.0513
2.25573
2.3351
2.39063
2.39065
2.38781
2.37872
2.35714
2.30749
2.26204
2.22584
2.19295
2.15032
2.10928
2.07638
2.04574
1.98097
1.00794
1.45798
3.85161
5.44427
5.59198
5.38204
5.13626
4.88108
4.6523
4.67604
5.63056
7.88634
9.35407
9.5241
8.97504
8.4503
8.03914
7.68679
7.35868
7.05171
6.75918
6.47254
6.18551
5.89931
5.62667
5.37442
5.14209
4.92615
4.72206
4.52517
4.33288
4.14608
3.96856
3.80444
3.65452
3.51638
3.38743
3.26532
3.14752
3.0319
2.91825
2.80957
2.70953
2.61873
2.53544
2.45653
2.37812
2.2969
2.21132
2.12483
2.04862
1.99063
1.94397
1.89939
1.85311
1.80239
1.7445
1.68323
1.62579
1.57205
1.52694
1.49643
1.46952
1.43748
1.39599
1.34945
1.31516
1.29326
1.26595
1.22724
1.18542
1.14727
1.11334
1.08938
1.07014
1.05376
1.03254
1.03418
1.09256
1.26265
1.57706
1.89722
2.17564
2.21992
2.25684
2.27945
2.28292
2.28171
2.26745
2.24098
2.19026
2.1337
2.09409
2.05745
2.00773
1.94641
1.00006
1.02106
1.71012
4.1496
5.39927
5.46207
5.27662
4.96136
5.13621
6.57079
9.15406
10.1174
9.95112
9.68648
9.22922
8.7078
8.26659
7.87798
7.52534
7.20044
6.8959
6.59518
6.29937
6.01168
5.73602
5.48015
5.24121
5.0151
4.8
4.5965
4.40399
4.22042
4.04439
3.87706
3.72052
3.57468
3.43732
3.30644
3.18253
3.06721
2.95969
2.85731
2.75885
2.66448
2.57471
2.48874
2.40394
2.31793
2.23089
2.14674
2.07159
2.00894
1.95735
1.91063
1.86099
1.80759
1.76205
1.72055
1.66457
1.60507
1.55947
1.52063
1.47923
1.44037
1.40608
1.37194
1.33357
1.28934
1.24633
1.20918
1.1811
1.16042
1.13903
1.11715
1.09076
1.06249
1.02954
0.997308
0.972586
0.975413
1.03591
1.19109
1.47569
1.77257
2.05227
2.15913
2.16174
2.16872
2.16125
2.15325
2.14828
2.13566
2.10804
2.05768
2.00065
1.92771
1
1.00023
1.04557
1.95296
4.38655
5.29854
5.28782
5.82932
7.77488
10.1811
11.0638
10.7522
10.1322
9.75302
9.41567
8.95044
8.48386
8.07013
7.69591
7.33367
6.98941
6.68708
6.40375
6.12073
5.83264
5.56335
5.31812
5.08525
4.86219
4.65048
4.45224
4.26809
4.09609
3.93245
3.77449
3.62313
3.48105
3.34844
3.22408
3.10657
2.99436
2.8875
2.78659
2.69149
2.60142
2.51451
2.42782
2.34002
2.25187
2.16661
2.09046
2.0277
1.97491
1.92564
1.87726
1.83096
1.78303
1.7193
1.64815
1.58678
1.54116
1.51168
1.48942
1.46751
1.43969
1.40082
1.34736
1.2877
1.23959
1.21114
1.19281
1.17263
1.14718
1.11914
1.09138
1.0639
1.0331
0.996836
0.964559
0.948134
0.944469
0.95088
0.99631
1.14472
1.40041
1.64172
1.8789
2.06776
2.06062
2.0557
2.06405
2.05794
2.04659
2.03724
2.01186
1.93216
1
1
1.00063
1.08158
2.24559
4.07676
6.06347
9.44628
11.103
11.6053
11.5338
11.0225
10.4507
9.97102
9.61437
9.19628
8.74109
8.30927
7.92169
7.55851
7.19833
6.83255
6.49001
6.20269
5.96339
5.7282
5.48389
5.24237
5.01103
4.79496
4.59537
4.40953
4.23271
4.06029
3.8914
3.72987
3.57838
3.44014
3.31351
3.19337
3.07689
2.96516
2.86084
2.7654
2.6765
2.58981
2.50213
2.41209
2.32077
2.23205
2.15228
2.08582
2.0301
1.97976
1.93044
1.87735
1.81274
1.73407
1.65652
1.59807
1.55751
1.52599
1.49551
1.46328
1.42813
1.3896
1.34727
1.30029
1.25612
1.22724
1.20216
1.17669
1.1516
1.12761
1.10371
1.07693
1.04109
0.995408
0.96112
0.942892
0.931509
0.924186
0.916229
0.913774
0.946704
1.05766
1.24796
1.52579
1.71712
1.88949
2.00266
2.01239
1.99578
1.9766
1.95273
1.90183
1
1
1
1.00181
1.12449
2.57554
9.37272
12.9519
12.4249
11.8276
11.5866
11.1377
10.6218
10.1351
9.72235
9.30327
8.86544
8.41713
8.00037
7.61692
7.24936
6.90056
6.57212
6.26576
5.97332
5.69738
5.43953
5.19574
4.96634
4.75175
4.55052
4.3597
4.17662
4.00039
3.83325
3.67917
3.54057
3.41325
3.28946
3.1646
3.04017
2.92191
2.81634
2.72437
2.64106
2.55984
2.47489
2.38326
2.28736
2.19427
2.11386
2.04866
1.99474
1.94649
1.89833
1.84592
1.79102
1.74611
1.70698
1.65882
1.60826
1.56348
1.52434
1.4876
1.44844
1.40132
1.34556
1.31178
1.29172
1.26422
1.23506
1.20692
1.18049
1.15222
1.11934
1.08569
1.04487
1.00066
0.966572
0.945145
0.931893
0.919822
0.908023
0.898167
0.887071
0.87788
0.893879
0.967543
1.13502
1.37369
1.61311
1.79734
1.91725
1.93915
1.92417
1.86502
1
1
1
1.00001
1.00304
3.13002
11.3739
12.7779
12.2569
11.7952
11.4873
11.0911
10.6118
10.1308
9.71466
9.32159
8.92615
8.48613
8.05539
7.65255
7.27867
6.93375
6.61243
6.30755
6.01455
5.73359
5.46716
5.2184
4.98776
4.77272
4.569
4.3726
4.18182
3.99886
3.82916
3.67732
3.5431
3.41956
3.29828
3.17396
3.04666
2.92227
2.81063
2.71696
2.63716
2.56241
2.48323
2.39314
2.29252
2.19075
2.10429
2.03888
1.9871
1.9408
1.89462
1.84739
1.8018
1.75396
1.69576
1.63289
1.57412
1.52694
1.4907
1.45953
1.42655
1.38933
1.35499
1.32136
1.27849
1.23876
1.20708
1.18023
1.15601
1.14248
1.13194
1.10906
1.07533
1.03623
0.99958
0.974323
0.956831
0.941368
0.925977
0.908502
0.89034
0.873379
0.851151
0.832438
0.845007
0.908989
1.07665
1.30662
1.53052
1.73653
1.81486
2.00562
1
1
1
1
1.00004
4.18082
11.3384
12.2779
12.3127
12.1972
11.8838
11.4475
10.9115
10.3849
9.91225
9.50399
9.08781
8.61689
8.14271
7.70171
7.30694
6.95221
6.62714
6.32223
6.03132
5.75193
5.48656
5.23891
5.00919
4.7932
4.58492
4.38043
4.18124
3.99477
3.82845
3.68255
3.55113
3.42719
3.30564
3.18307
3.05873
2.93696
2.82388
2.72232
2.6318
2.5509
2.47653
2.40193
2.31534
2.21205
2.10954
2.03161
1.9748
1.9283
1.88834
1.85167
1.81218
1.76356
1.7036
1.63454
1.56881
1.5178
1.48099
1.4523
1.42432
1.39339
1.35742
1.31444
1.27108
1.23457
1.20253
1.17626
1.15705
1.13565
1.10885
1.08111
1.04835
1.01111
0.973861
0.948279
0.931013
0.916424
0.901764
0.884427
0.866269
0.847159
0.824055
0.799569
0.773191
0.767161
0.785055
0.856163
1.04308
1.33993
1.7413
2.40086
)
;

boundaryField
{
    inlet
    {
        type            fixedValue;
        value           uniform 1;
    }
    outlet
    {
        type            zeroGradient;
    }
    bottom
    {
        type            symmetryPlane;
    }
    top
    {
        type            symmetryPlane;
    }
    obstacle
    {
        type            zeroGradient;
    }
    defaultFaces
    {
        type            empty;
    }
}


// ************************************************************************* //
