/*--------------------------------*- C++ -*----------------------------------*\
  =========                 |
  \\      /  F ield         | OpenFOAM: The Open Source CFD Toolbox
   \\    /   O peration     | Website:  https://openfoam.org
    \\  /    A nd           | Version:  7
     \\/     M anipulation  |
\*---------------------------------------------------------------------------*/
FoamFile
{
    version     2.0;
    format      ascii;
    class       volScalarField;
    location    "2.5";
    object      rho;
}
// * * * * * * * * * * * * * * * * * * * * * * * * * * * * * * * * * * * * * //

dimensions      [1 -3 0 0 0 0 0];

internalField   nonuniform List<scalar> 
4032
(
1.40001
1.40001
1.40001
1.40001
1.40001
1.40001
1.40001
1.40001
1.40001
1.40001
1.40001
1.40001
3.81853
5.43431
5.50649
5.58218
5.65895
5.72948
5.79119
5.84059
5.87741
5.90195
5.92093
5.93902
1.40001
1.40001
1.40001
1.40001
1.40001
1.40001
1.40001
1.40001
1.40001
1.40001
1.40001
1.40001
3.74346
5.40948
5.49642
5.57145
5.64809
5.71724
5.77711
5.82401
5.85819
5.88035
5.89703
5.91406
1.40001
1.40001
1.40001
1.40001
1.40001
1.40001
1.40001
1.40001
1.40001
1.40001
1.40001
1.40001
3.59461
5.38003
5.47758
5.5512
5.62774
5.69564
5.75385
5.79842
5.82992
5.84992
5.86378
5.88073
1.40001
1.40001
1.40001
1.40001
1.40001
1.40001
1.40001
1.40001
1.40001
1.40001
1.40001
1.40001
3.37815
5.33524
5.45277
5.52367
5.59985
5.6662
5.72269
5.76487
5.79278
5.80766
5.81364
5.82247
1.40001
1.40001
1.40001
1.40001
1.40001
1.40001
1.40001
1.40001
1.40001
1.40001
1.40001
1.40001
3.09589
5.2627
5.42276
5.48895
5.56144
5.62242
5.67259
5.70723
5.727
5.73747
5.74032
5.7556
1.40001
1.40001
1.40001
1.40001
1.40001
1.40001
1.40001
1.40001
1.40001
1.40001
1.40001
1.40001
2.75658
5.14839
5.40019
5.45806
5.52287
5.57441
5.61471
5.64099
5.65357
5.65903
5.65317
5.63766
1.40001
1.40001
1.40001
1.40001
1.40001
1.40001
1.40001
1.40001
1.40001
1.40001
1.40001
1.40001
2.35914
4.98089
5.41361
5.4478
5.49389
5.52983
5.55387
5.5623
5.55031
5.51901
5.48134
5.46282
1.40001
1.40001
1.40001
1.40001
1.40001
1.40001
1.40001
1.40001
1.40001
1.40001
1.40001
1.40001
1.92727
4.74214
5.43287
5.42298
5.45717
5.48121
5.4878
5.47485
5.43777
5.3815
5.30353
5.2653
1.40001
1.40001
1.40001
1.40001
1.40001
1.40001
1.40001
1.40001
1.40001
1.40001
1.40001
1.40001
1.48945
4.35935
5.45536
5.41546
5.41541
5.41283
5.39835
5.36688
5.29593
5.17144
4.84342
3.99663
1.40001
1.40001
1.40001
1.40001
1.40001
1.40001
1.40001
1.40001
1.40001
1.40001
1.40001
1.40001
1.40125
3.70943
5.22786
5.28
5.3101
5.31304
5.29058
5.24132
5.13419
4.93404
4.59046
3.68444
1.40001
1.40001
1.40001
1.40001
1.40001
1.40001
1.40001
1.40001
1.40001
1.40001
1.40001
1.40001
1.39999
2.9634
5.0562
5.23887
5.24923
5.24014
5.20082
5.12688
4.99168
4.74884
4.38636
3.56059
1.40001
1.40001
1.40001
1.40001
1.40001
1.40001
1.40001
1.40001
1.40001
1.40001
1.40001
1.40001
1.4
2.17446
4.81631
5.22822
5.20715
5.17321
5.11002
5.01312
4.8551
4.61278
4.21357
3.54759
1.40001
1.40001
1.40001
1.40001
1.40001
1.40001
1.40001
1.40001
1.40001
1.40001
1.40001
1.40001
1.4
1.53417
4.26315
5.23171
5.16283
5.09731
5.01171
4.90208
4.73593
4.50276
4.10767
3.58728
1.40001
1.40001
1.40001
1.40001
1.40001
1.40001
1.40001
1.40001
1.40001
1.40001
1.40001
1.40001
1.4
1.40201
3.38082
5.06898
5.05011
4.99872
4.91646
4.79973
4.64028
4.40736
4.05146
3.63861
1.40001
1.40001
1.40001
1.40001
1.40001
1.40001
1.40001
1.40001
1.40001
1.40001
1.40001
1.40001
1.40001
1.39998
2.2822
4.85914
5.04742
4.97369
4.87403
4.73932
4.57814
4.33715
4.02924
3.69205
1.40001
1.40001
1.40001
1.40001
1.40001
1.40001
1.40001
1.40001
1.40001
1.40001
1.40001
1.40001
1.40001
1.4
1.53345
4.11757
5.01782
4.93722
4.84007
4.69391
4.52323
4.29108
4.02124
3.7315
1.40001
1.40001
1.40001
1.40001
1.40001
1.40001
1.40001
1.40001
1.40001
1.40001
1.40001
1.40001
1.40001
1.4
1.40172
2.90337
4.84822
4.89152
4.80723
4.67611
4.49561
4.27376
4.02778
3.76728
1.40001
1.40001
1.40001
1.40001
1.40001
1.40001
1.40001
1.40001
1.40001
1.40001
1.40001
1.40001
1.40001
1.4
1.4
1.7362
4.42342
4.95462
4.81664
4.67727
4.48939
4.26888
4.03578
3.79392
1.40001
1.40001
1.40001
1.40001
1.40001
1.40001
1.40001
1.40001
1.40001
1.40001
1.40001
1.40001
1.40001
1.40001
1.4
1.41471
3.28718
4.79357
4.77087
4.65063
4.47721
4.26973
4.04931
3.82254
1.40001
1.40001
1.40001
1.40001
1.40001
1.40001
1.40001
1.40001
1.40001
1.40001
1.40001
1.40001
1.40001
1.40001
1.4
1.4
1.91311
4.43279
4.834
4.66394
4.48556
4.2869
4.08263
3.86936
1.40001
1.40001
1.40001
1.40001
1.40001
1.40001
1.40001
1.40001
1.40001
1.40001
1.40001
1.40001
1.40001
1.40001
1.40001
1.4
1.43591
3.33922
4.71116
4.64303
4.48482
4.30479
4.11418
3.91475
1.40001
1.40001
1.40001
1.40001
1.40001
1.40001
1.40001
1.40001
1.40001
1.40001
1.40001
1.40001
1.40001
1.40001
1.40001
1.4
1.40016
1.94467
4.25231
4.68392
4.51395
4.34092
4.15459
3.96511
1.40001
1.40001
1.40001
1.40001
1.40001
1.40001
1.40001
1.40001
1.40001
1.40001
1.40001
1.40001
1.40001
1.40001
1.40001
1.40001
1.40001
1.4389
3.06339
4.56468
4.51733
4.35746
4.18502
4.00727
1.40001
1.40001
1.40001
1.40001
1.40001
1.40001
1.40001
1.40001
1.40001
1.40001
1.40001
1.40001
1.40001
1.40001
1.40001
1.40001
1.40001
1.4003
1.80469
3.93733
4.57395
4.39907
4.23468
4.06249
1.40001
1.40001
1.40001
1.40001
1.40001
1.40001
1.40001
1.40001
1.40001
1.40001
1.40001
1.40001
1.40001
1.40001
1.40001
1.40001
1.40001
1.40001
1.42089
2.55586
4.30475
4.4165
4.27591
4.114
1.40001
1.40001
1.40001
1.40001
1.40001
1.40001
1.40001
1.40001
1.40001
1.40001
1.40001
1.40001
1.40001
1.40001
1.40001
1.40001
1.40001
1.40001
1.40019
1.58708
3.38755
4.43096
4.34593
4.18559
1.40001
1.40001
1.40001
1.40001
1.40001
1.40001
1.40001
1.40001
1.40001
1.40001
1.40001
1.40001
1.40001
1.40001
1.40001
1.40001
1.40001
1.40001
1.40001
1.40501
2.01669
3.92899
4.37949
4.24916
1.40001
1.40001
1.40001
1.40001
1.40001
1.40001
1.40001
1.40001
1.40001
1.40001
1.40001
1.40001
1.40001
1.40001
1.40001
1.40001
1.40001
1.40001
1.40001
1.40004
1.4495
2.60237
4.16143
4.30522
1.40001
1.40001
1.40001
1.40001
1.40001
1.40001
1.40001
1.40001
1.40001
1.40001
1.40001
1.40001
1.40001
1.40001
1.40001
1.40001
1.40001
1.40001
1.40001
1.40001
1.40073
1.59594
3.19199
4.24097
1.40001
1.40001
1.40001
1.40001
1.40001
1.40001
1.40001
1.40001
1.40001
1.40001
1.40001
1.40001
1.40001
1.40001
1.40001
1.40001
1.40001
1.40001
1.40001
1.40001
1.40001
1.40612
1.88611
3.61395
1.40001
1.40001
1.40001
1.40001
1.40001
1.40001
1.40001
1.40001
1.40001
1.40001
1.40001
1.40001
1.40001
1.40001
1.40001
1.40001
1.40001
1.40001
1.40001
1.40001
1.40001
1.40005
1.43174
2.25238
1.40001
1.40001
1.40001
1.40001
1.40001
1.40001
1.40001
1.40001
1.40001
1.40001
1.40001
1.40001
1.40001
1.40001
1.40001
1.40001
1.40001
1.40001
1.40001
1.40001
1.40001
1.40001
1.40044
1.49625
1.40001
1.40001
1.40001
1.40001
1.40001
1.40001
1.40001
1.40001
1.40001
1.40001
1.40001
1.40001
1.40001
1.40001
1.40001
1.40001
1.40001
1.40001
1.40001
1.40001
1.40001
1.40001
1.40001
1.40213
1.40001
1.40001
1.40001
1.40001
1.40001
1.40001
1.40001
1.40001
1.40001
1.40001
1.40001
1.40001
1.40001
1.40001
1.40001
1.40001
1.40001
1.40001
1.40001
1.40001
1.40001
1.40001
1.40001
1.40002
1.40001
1.40001
1.40001
1.40001
1.40001
1.40001
1.40001
1.40001
1.40001
1.40001
1.40001
1.40001
1.40001
1.40001
1.40001
1.40001
1.40001
1.40001
1.40001
1.40001
1.40001
1.40001
1.40001
1.40001
1.40001
1.40001
1.40001
1.40001
1.40001
1.40001
1.40001
1.40001
1.40001
1.40001
1.40001
1.40001
1.40001
1.40001
1.40001
1.40001
1.40001
1.40001
1.40001
1.40001
1.40001
1.40001
1.40001
1.40001
1.40001
1.40001
1.40001
1.40001
1.40001
1.40001
1.40001
1.40001
1.40001
1.40001
1.40001
1.40001
1.40001
1.40001
1.40001
1.40001
1.40001
1.40001
1.40001
1.40001
1.40001
1.40001
1.40001
1.40001
1.40001
1.40001
1.40001
1.40001
1.40001
1.40001
1.40001
1.40001
1.40001
1.40001
1.40001
1.40001
1.40001
1.40001
1.40001
1.40001
1.40001
1.40001
1.40001
1.40001
1.40001
1.40001
1.40001
1.40001
1.40001
1.40001
1.40001
1.40001
1.40001
1.40001
1.40001
1.40001
1.40001
1.40001
1.40001
1.40001
1.40001
1.40001
1.40001
1.40001
1.40001
1.40001
1.40001
1.40001
1.40001
1.40001
1.40001
1.40001
1.40001
1.40001
1.40001
1.40001
1.40001
1.40001
1.40001
1.40001
1.40001
1.40001
1.40001
1.40001
1.40001
1.40001
1.40001
1.40001
1.40001
1.40001
1.40001
1.40001
1.40001
1.40001
1.40001
1.40001
1.33998
0.510319
0.186981
0.18236
0.22006
0.298538
0.400257
0.496847
0.608637
0.696292
0.775863
0.83347
0.881974
0.930412
0.959763
0.987323
1.01824
1.02698
1.02223
1.02212
1.03576
1.05156
1.05954
1.0624
1.05715
1.05122
1.05341
1.06796
1.08848
1.09674
1.09783
1.09206
1.08081
1.07577
1.07678
1.10444
1.34996
2.60499
3.46964
3.45733
3.42513
3.38799
3.31564
3.23972
3.15961
3.09577
3.05805
3.0419
3.02492
2.98165
2.93361
2.88817
2.8471
2.81186
2.77285
2.73167
2.68653
2.64706
2.61668
2.59171
2.57559
2.55337
2.52058
2.4841
2.43953
2.38791
2.34346
2.31325
2.28985
2.26975
2.25443
2.23608
2.2134
2.18384
2.13599
2.08116
2.04814
2.02783
2.00968
1.99427
1.98322
1.96858
1.95005
1.92237
1.86942
1.8107
1.78218
1.76651
1.75335
1.74639
1.74665
1.73968
1.72672
1.70386
1.65644
1.59545
1.96857
1.2368
0.840111
0.644948
0.606656
0.576925
0.562977
0.568227
0.569217
0.587611
0.63282
0.698001
0.769194
0.838212
0.897352
0.938715
0.977544
1.01569
1.03618
1.04384
1.05006
1.05508
1.06547
1.08095
1.08865
1.08621
1.08462
1.08778
1.08964
1.09693
1.10715
1.10994
1.10819
1.09908
1.11391
1.28038
1.64895
2.29499
3.19626
3.3949
3.41637
3.37505
3.29688
3.23724
3.19815
3.14855
3.10193
3.05967
3.02146
2.98194
2.94297
2.90481
2.86824
2.83186
2.79084
2.74818
2.70257
2.65918
2.62491
2.59574
2.57102
2.54669
2.5193
2.48778
2.45172
2.41167
2.36938
2.33016
2.30033
2.27738
2.25544
2.23367
2.21109
2.18448
2.14739
2.10146
2.06095
2.03515
2.0164
1.99949
1.98393
1.96715
1.94737
1.92118
1.88181
1.83304
1.79394
1.77271
1.75948
1.74929
1.74116
1.73269
1.72034
1.70175
1.66982
1.61264
2.47692
1.80348
1.38855
1.13321
0.977525
0.840382
0.724652
0.688085
0.668581
0.655115
0.665619
0.709845
0.764836
0.803816
0.853703
0.907134
0.952888
1.01182
1.07772
1.10667
1.11277
1.10844
1.10768
1.11723
1.14069
1.15689
1.16064
1.15627
1.13511
1.12183
1.1207
1.12785
1.1431
1.18114
1.32848
1.75802
2.06448
2.15834
2.6122
3.22037
3.55437
3.51945
3.44925
3.37832
3.30404
3.25533
3.2072
3.1469
3.08168
3.0339
2.99402
2.95852
2.926
2.88707
2.84574
2.80187
2.75432
2.70963
2.67082
2.63262
2.59356
2.55659
2.52165
2.49022
2.46317
2.43708
2.41
2.3769
2.33861
2.30351
2.27389
2.24596
2.21653
2.18525
2.1567
2.12832
2.09533
2.06074
2.0346
2.01411
1.99397
1.97259
1.94783
1.91896
1.89094
1.86386
1.83291
1.79855
1.77252
1.75735
1.74446
1.73003
1.71354
1.69396
1.67412
1.63772
2.8094
2.26374
1.83634
1.51788
1.33847
1.19065
1.01233
0.892841
0.87631
0.855906
0.820221
0.786772
0.772424
0.769121
0.785229
0.820651
0.869119
0.94059
1.02349
1.07116
1.09118
1.10288
1.11257
1.13042
1.16511
1.20393
1.21455
1.20988
1.18967
1.16575
1.15636
1.15962
1.1941
1.38339
1.79282
2.13639
2.26874
2.24302
2.27713
2.58081
3.13111
3.39928
3.51067
3.49775
3.41428
3.34867
3.2821
3.22132
3.15502
3.0932
3.05175
3.01669
2.98455
2.94541
2.90465
2.85865
2.80717
2.75902
2.71771
2.67876
2.63798
2.59526
2.55625
2.5252
2.49831
2.47357
2.44858
2.4211
2.38509
2.34095
2.30335
2.27153
2.23954
2.21041
2.18668
2.1635
2.13623
2.10034
2.0625
2.03489
2.01197
1.98676
1.95763
1.93144
1.91349
1.89665
1.87613
1.84578
1.8072
1.77697
1.75669
1.73797
1.71782
1.69733
1.6832
1.66031
3.04509
2.5966
2.21078
1.86448
1.63902
1.48409
1.3293
1.15345
1.02793
0.991182
0.958317
0.920257
0.883893
0.838752
0.805899
0.801799
0.806272
0.833114
0.888747
0.953533
0.99901
1.03941
1.07937
1.10934
1.14824
1.18843
1.20608
1.21011
1.21067
1.2009
1.19561
1.21311
1.38231
1.84279
2.15384
2.2871
2.31958
2.30304
2.26895
2.26256
2.4479
2.89098
3.27761
3.47571
3.46765
3.42651
3.3491
3.27936
3.21073
3.14078
3.0911
3.0548
3.02073
2.98428
2.94646
2.90512
2.85829
2.80918
2.76148
2.71584
2.67035
2.62729
2.59241
2.56421
2.53888
2.51479
2.48993
2.46303
2.42746
2.37497
2.32283
2.29044
2.26779
2.24809
2.22854
2.20741
2.18243
2.14736
2.09853
2.0534
2.02225
1.99671
1.97656
1.96236
1.9508
1.93678
1.91908
1.89501
1.85607
1.80679
1.77086
1.74748
1.72916
1.71593
1.70658
1.68574
3.19868
2.81782
2.48848
2.17385
1.90211
1.70498
1.56407
1.43406
1.30497
1.15572
1.07535
1.05606
1.03545
0.992519
0.934148
0.87596
0.840065
0.83835
0.846478
0.859042
0.881697
0.913222
0.966051
1.02397
1.07168
1.11493
1.14928
1.18777
1.19778
1.19759
1.23201
1.39425
1.86744
2.18968
2.28288
2.31457
2.31765
2.29006
2.25687
2.21822
2.20712
2.30651
2.66189
3.16512
3.36384
3.39344
3.37692
3.31464
3.25771
3.1859
3.11681
3.0636
3.02549
2.99373
2.96434
2.93197
2.8925
2.84921
2.80211
2.75177
2.70238
2.66016
2.62656
2.59707
2.56888
2.54129
2.51457
2.48726
2.45379
2.40488
2.34791
2.3139
2.29427
2.27662
2.26032
2.24117
2.21896
2.18741
2.13404
2.06961
2.02947
2.00932
1.99545
1.98662
1.98368
1.97423
1.95876
1.93991
1.9068
1.84451
1.7844
1.75892
1.74645
1.73657
1.73273
1.71458
3.32933
2.99377
2.68391
2.39644
2.16027
1.94662
1.72768
1.60137
1.51375
1.39943
1.27719
1.1661
1.11943
1.09271
1.05352
1.00466
0.956413
0.898005
0.865774
0.865446
0.870896
0.892536
0.913431
0.933008
0.956399
0.988897
1.02901
1.08377
1.12634
1.17519
1.40921
1.82026
2.2326
2.30704
2.32325
2.31727
2.29313
2.25484
2.23132
2.20681
2.19226
2.18378
2.23556
2.51103
2.95054
3.22272
3.32726
3.31402
3.28415
3.23095
3.16449
3.09534
3.02659
2.98854
2.96334
2.94436
2.91381
2.8772
2.83433
2.78325
2.7292
2.68398
2.65174
2.62332
2.59312
2.56014
2.52594
2.49287
2.45958
2.41981
2.37342
2.33587
2.31291
2.29426
2.27661
2.25803
2.23676
2.20722
2.15641
2.08652
2.04454
2.0284
2.01532
2.00579
2.00368
1.99684
1.98149
1.96468
1.93746
1.88206
1.8128
1.77921
1.76567
1.75379
1.74775
1.73394
3.41755
3.1216
2.84384
2.56488
2.33791
2.14761
1.94376
1.76343
1.63759
1.55349
1.46711
1.36949
1.25913
1.17196
1.14501
1.12385
1.09007
1.03569
0.962368
0.914291
0.90357
0.905844
0.913223
0.919625
0.918114
0.914939
0.923138
0.957681
1.00786
1.23635
1.71674
2.0732
2.26408
2.28584
2.28562
2.26669
2.2493
2.23503
2.22849
2.21433
2.19862
2.18411
2.16607
2.183
2.33805
2.69537
3.0618
3.19856
3.25381
3.26599
3.20728
3.14736
3.05983
2.9958
2.96339
2.93836
2.9224
2.89614
2.86039
2.81666
2.76005
2.70152
2.6646
2.63813
2.61094
2.58071
2.54564
2.50496
2.46205
2.42298
2.38848
2.35602
2.32626
2.30119
2.27984
2.25954
2.23819
2.2114
2.17187
2.11898
2.0712
2.04717
2.03343
2.02164
2.01269
2.00787
1.99701
1.97739
1.94902
1.90745
1.85718
1.81066
1.78333
1.76814
1.75953
1.74712
3.48782
3.22074
2.968
2.71614
2.49174
2.29498
2.11581
1.95497
1.81041
1.66757
1.57832
1.51823
1.4359
1.33847
1.24135
1.18963
1.16606
1.13451
1.08906
1.03847
0.988097
0.942304
0.923011
0.92629
0.929792
0.925494
0.925899
0.934819
1.09341
1.55105
1.8517
2.01702
2.13804
2.15731
2.15822
2.16872
2.19555
2.21188
2.21674
2.21521
2.20857
2.1876
2.16836
2.15036
2.1303
2.19698
2.46749
2.82984
3.09364
3.20764
3.22246
3.18781
3.12389
3.04423
2.97407
2.94013
2.9172
2.90501
2.88091
2.84572
2.79764
2.72862
2.67079
2.64205
2.61845
2.59424
2.56637
2.53057
2.48528
2.43661
2.3948
2.36393
2.336
2.30824
2.28283
2.25881
2.23376
2.20759
2.18215
2.15387
2.11509
2.07258
2.05074
2.03854
2.02567
2.00845
1.98634
1.96148
1.93683
1.91494
1.88992
1.855
1.81643
1.7868
1.77218
1.75107
3.54165
3.29935
3.0637
2.83643
2.63115
2.43403
2.24465
2.1001
1.97458
1.83487
1.70007
1.60578
1.54131
1.47539
1.3995
1.31924
1.23094
1.19167
1.17835
1.15113
1.10949
1.05371
0.988082
0.96055
0.956201
0.947323
0.958789
1.07657
1.47512
1.79284
1.89498
1.91856
1.93522
1.95091
1.97506
2.0074
2.04434
2.09297
2.14198
2.16728
2.17051
2.18052
2.1728
2.1551
2.12493
2.08726
2.10946
2.26198
2.57902
2.92722
3.11416
3.17411
3.17304
3.10957
3.02108
2.95055
2.9175
2.90115
2.89272
2.86694
2.83097
2.77299
2.69371
2.64123
2.61573
2.59666
2.57736
2.55285
2.52134
2.47736
2.4214
2.36836
2.33234
2.30704
2.28373
2.25942
2.23466
2.21289
2.19517
2.17723
2.15371
2.11787
2.07468
2.03928
2.01526
1.99575
1.97557
1.95365
1.93361
1.91861
1.90445
1.88517
1.85494
1.81633
1.78757
1.75533
3.5933
3.37163
3.1509
2.94179
2.74773
2.56198
2.38341
2.22682
2.09067
1.96859
1.85099
1.74729
1.63765
1.54671
1.50233
1.44839
1.36672
1.28479
1.23781
1.21235
1.18859
1.15691
1.10994
1.04327
1.00433
1.00037
1.09432
1.46206
1.86076
1.95389
1.9352
1.90562
1.88391
1.86417
1.85816
1.85308
1.85112
1.87732
1.92362
1.98055
2.0377
2.0904
2.11589
2.115
2.0999
2.07638
2.05581
2.04803
2.11073
2.34953
2.70473
2.99626
3.10816
3.11552
3.0781
2.98742
2.92932
2.90235
2.88954
2.87953
2.8533
2.81416
2.7462
2.6639
2.61902
2.59619
2.57862
2.5627
2.5405
2.51208
2.46849
2.40417
2.34264
2.30361
2.27832
2.2577
2.24013
2.2251
2.21094
2.1962
2.17925
2.15287
2.10493
2.04902
2.01303
1.98821
1.96706
1.95129
1.93887
1.92744
1.91495
1.90032
1.87952
1.84573
1.80684
1.75915
3.65532
3.44227
3.2308
3.03735
2.85058
2.66483
2.50062
2.35469
2.21245
2.07064
1.96008
1.86719
1.76689
1.6607
1.57669
1.52283
1.46665
1.40555
1.35192
1.29081
1.23345
1.21557
1.19205
1.1459
1.11844
1.21159
1.55818
1.95415
2.06568
2.02445
1.97677
1.93456
1.91137
1.8949
1.87522
1.85461
1.83594
1.8155
1.80246
1.81068
1.84114
1.88441
1.9304
1.97359
2.00585
2.01925
2.01421
1.99607
1.99615
2.02687
2.16295
2.45527
2.77444
2.97778
3.03668
3.02094
2.9629
2.91456
2.89001
2.88266
2.86464
2.83725
2.79679
2.72471
2.64254
2.59821
2.57548
2.55837
2.54344
2.52284
2.49713
2.45711
2.39044
2.31694
2.27749
2.25823
2.24318
2.23152
2.22057
2.20743
2.19188
2.17
2.13006
2.0692
2.01645
1.98675
1.96996
1.95776
1.94657
1.93575
1.92298
1.90921
1.89194
1.8623
1.8222
1.76532
3.70915
3.50233
3.3068
3.12281
2.94075
2.76456
2.61035
2.46043
2.31689
2.18444
2.07457
1.96232
1.86385
1.77202
1.69147
1.61672
1.53967
1.485
1.44834
1.39926
1.33149
1.26519
1.2399
1.23133
1.33039
1.71396
2.11799
2.21918
2.17013
2.11123
2.05872
2.0213
1.98579
1.9518
1.92128
1.89348
1.86144
1.81747
1.79021
1.78268
1.778
1.77209
1.77286
1.78666
1.8145
1.84587
1.86801
1.89687
1.91146
1.91884
1.9391
2.00825
2.20686
2.4963
2.75816
2.92341
2.94738
2.9178
2.89681
2.8823
2.87311
2.85301
2.82383
2.77788
2.70513
2.62432
2.57682
2.55265
2.53399
2.52316
2.5065
2.48283
2.44334
2.36793
2.29559
2.26758
2.25043
2.23533
2.22213
2.20857
2.1937
2.1744
2.1428
2.09062
2.03601
2.00182
1.98317
1.9704
1.95848
1.94605
1.93279
1.91725
1.89583
1.86244
1.82475
1.77098
3.76866
3.57041
3.38534
3.20665
3.02629
2.862
2.71125
2.56375
2.41495
2.29244
2.18007
2.06926
1.95982
1.86995
1.79378
1.71782
1.64294
1.5677
1.50967
1.47227
1.42083
1.35957
1.33161
1.43181
1.83052
2.27394
2.38487
2.33585
2.27585
2.22331
2.16436
2.10611
2.06036
2.0252
1.99527
1.96546
1.93334
1.88807
1.83599
1.79626
1.77441
1.75944
1.75025
1.74487
1.73803
1.72685
1.7177
1.72517
1.73649
1.75616
1.78749
1.80824
1.85091
1.97381
2.18523
2.46597
2.72632
2.85449
2.85075
2.86499
2.87817
2.86308
2.83525
2.79933
2.74958
2.6764
2.59581
2.55256
2.53245
2.52
2.50845
2.48846
2.46485
2.42298
2.34627
2.28534
2.2611
2.24322
2.2256
2.20913
2.19359
2.17558
2.14968
2.10981
2.0636
2.02878
2.00634
1.98811
1.97082
1.95442
1.93996
1.92521
1.90411
1.86914
1.82227
1.76902
3.82322
3.64141
3.46289
3.28317
3.11069
2.9575
2.8063
2.65584
2.51545
2.39721
2.27771
2.16599
2.05698
1.97293
1.88595
1.80465
1.73164
1.66792
1.60194
1.53146
1.48001
1.45834
1.58278
2.01716
2.44837
2.55257
2.49929
2.43561
2.38193
2.32336
2.25553
2.19916
2.15688
2.12189
2.08894
2.05487
2.01691
1.96789
1.90793
1.85439
1.81819
1.79304
1.76945
1.74508
1.72406
1.70715
1.69491
1.67444
1.64451
1.63399
1.64008
1.65199
1.66034
1.68536
1.74611
1.8737
2.11124
2.4182
2.64479
2.78567
2.80715
2.83468
2.83641
2.81629
2.76626
2.71005
2.64202
2.57696
2.54299
2.5227
2.50483
2.49269
2.47616
2.44765
2.39489
2.32329
2.27577
2.25101
2.2305
2.2121
2.1956
2.1786
2.15727
2.12826
2.09019
2.05207
2.02524
2.00531
1.98698
1.96793
1.946
1.92036
1.89426
1.86675
1.82778
1.78116
3.88572
3.71429
3.54209
3.36436
3.20019
3.04843
2.89878
2.74484
2.6163
2.49339
2.37584
2.25581
2.157
2.06851
1.97888
1.8969
1.81513
1.75173
1.68273
1.61481
1.58263
1.71688
2.19655
2.64368
2.73225
2.67323
2.60181
2.542
2.48378
2.41426
2.3462
2.29465
2.25268
2.21329
2.17444
2.13417
2.08929
2.03538
1.97213
1.91943
1.88388
1.8529
1.82352
1.79473
1.76779
1.7384
1.70514
1.66972
1.63451
1.61872
1.61073
1.59571
1.58242
1.5804
1.57572
1.58217
1.62958
1.761
2.01324
2.34272
2.56085
2.69939
2.76753
2.76421
2.75584
2.72473
2.67421
2.62119
2.57541
2.53825
2.51366
2.48775
2.45484
2.42952
2.40525
2.36255
2.30578
2.26264
2.23544
2.2141
2.19703
2.18234
2.16705
2.1473
2.1175
2.07502
2.03546
2.01013
1.99192
1.97509
1.95305
1.92337
1.89117
1.85827
1.83301
1.80172
3.94851
3.78221
3.6118
3.44482
3.28888
3.13292
2.97655
2.83402
2.70971
2.58444
2.46233
2.34469
2.25416
2.1566
2.06783
1.97805
1.90569
1.82519
1.7543
1.72476
1.88934
2.41547
2.85864
2.91799
2.85057
2.77153
2.70704
2.64716
2.57876
2.50691
2.44261
2.38967
2.34304
2.29915
2.25667
2.21423
2.16942
2.1175
2.05352
1.98962
1.9442
1.90973
1.87867
1.84883
1.81846
1.78572
1.74926
1.70267
1.65537
1.62372
1.60345
1.58353
1.57131
1.56628
1.55209
1.53788
1.5216
1.51282
1.54176
1.65572
1.91513
2.2175
2.51588
2.60512
2.67817
2.68503
2.67474
2.65238
2.60342
2.55884
2.52713
2.49424
2.45583
2.42387
2.39741
2.36992
2.33044
2.28161
2.24539
2.22112
2.19877
2.18045
2.16672
2.15369
2.13539
2.10138
2.05184
2.01492
1.99769
1.98323
1.96155
1.9299
1.89673
1.86644
1.84813
1.81904
4.02386
3.85771
3.68568
3.52365
3.36949
3.21511
3.05814
2.9254
2.79674
2.67372
2.54563
2.4426
2.34397
2.24673
2.15104
2.06399
1.98167
1.90403
1.88573
2.08147
2.66172
3.09148
3.13632
3.0576
2.96401
2.88759
2.82022
2.75015
2.67545
2.60186
2.53621
2.47947
2.42921
2.38228
2.3362
2.28953
2.24061
2.18617
2.12216
2.05578
2.00664
1.97159
1.93994
1.9082
1.87524
1.84117
1.80352
1.75622
1.70481
1.66427
1.63425
1.61131
1.59365
1.57255
1.54779
1.52743
1.50831
1.49015
1.46935
1.45631
1.48175
1.58013
1.82707
2.12409
2.42347
2.54562
2.5831
2.59136
2.58137
2.57119
2.54939
2.51282
2.47096
2.43146
2.39938
2.37174
2.34141
2.30326
2.26094
2.22578
2.2019
2.18714
2.17915
2.16994
2.15235
2.11933
2.07778
2.0338
1.99356
1.96308
1.9405
1.92131
1.90351
1.88618
1.86961
1.83559
4.08252
3.91561
3.74879
3.59313
3.44156
3.28421
3.13952
3.01342
2.88542
2.755
2.63314
2.53548
2.43007
2.33289
2.23195
2.13904
2.05567
2.0483
2.31095
2.93709
3.36469
3.33944
3.23677
3.13677
3.06752
3.00245
2.93285
2.85836
2.77893
2.69629
2.62055
2.55875
2.50731
2.46052
2.41499
2.36858
2.31864
2.26112
2.1921
2.11902
2.06517
2.02983
1.99882
1.96801
1.93595
1.9005
1.85775
1.80522
1.7496
1.70813
1.67927
1.65606
1.63319
1.6073
1.58078
1.5526
1.52112
1.48504
1.45542
1.43992
1.42852
1.42099
1.44002
1.53117
1.74014
2.04365
2.30586
2.47826
2.49007
2.50984
2.51459
2.50758
2.48771
2.44916
2.40661
2.37534
2.34662
2.31108
2.27352
2.24483
2.22126
2.19685
2.17171
2.14853
2.13013
2.1169
2.09325
2.05139
2.00196
1.96186
1.93702
1.92409
1.9138
1.90124
1.88675
1.85063
4.15633
3.98445
3.82373
3.67196
3.5225
3.36866
3.23071
3.10483
2.9733
2.83529
2.72803
2.62557
2.52117
2.41477
2.3087
2.20998
2.23591
2.56596
3.28207
3.64984
3.60382
3.47584
3.34262
3.2473
3.18096
3.11525
3.04501
2.97029
2.88708
2.79354
2.70533
2.63803
2.58408
2.53459
2.4866
2.43846
2.38748
2.32989
2.26257
2.19014
2.12906
2.08531
2.04951
2.01645
1.98443
1.95092
1.91198
1.86438
1.80992
1.75932
1.71953
1.69081
1.66818
1.64676
1.62437
1.59758
1.56425
1.51995
1.4765
1.44173
1.41825
1.40178
1.3978
1.39571
1.40708
1.48491
1.65479
1.92701
2.17529
2.35044
2.45608
2.4702
2.4557
2.43404
2.40058
2.36582
2.32844
2.29802
2.28415
2.26699
2.24233
2.2073
2.17228
2.14672
2.12345
2.09365
2.06386
2.03957
2.01025
1.97651
1.95404
1.93863
1.92291
1.90434
1.89292
1.86402
4.22173
4.07001
3.90393
3.75404
3.60659
3.45452
3.31783
3.1915
3.05898
2.92385
2.81728
2.70603
2.60402
2.49174
2.37653
2.41608
2.87323
3.5962
3.96548
3.8768
3.7113
3.57472
3.46856
3.3816
3.30263
3.22538
3.14754
3.06767
2.98215
2.88949
2.79885
2.72347
2.6621
2.60698
2.55432
2.5023
2.44867
2.39132
2.3294
2.26493
2.20478
2.15472
2.11154
2.07087
2.03115
1.9917
1.95176
1.91001
1.86605
1.82306
1.78231
1.74197
1.70401
1.67364
1.64998
1.62752
1.60287
1.57162
1.53409
1.48743
1.44322
1.41134
1.39456
1.37893
1.37307
1.36829
1.36635
1.40843
1.55229
1.78498
2.06296
2.2569
2.38291
2.41165
2.40676
2.38337
2.34177
2.30263
2.27129
2.24303
2.21708
2.197
2.17653
2.15208
2.12096
2.08616
2.0517
2.02036
1.9988
1.98777
1.97638
1.96084
1.93891
1.91258
1.88658
1.84449
4.21957
4.15821
3.99433
3.83686
3.68627
3.53936
3.40736
3.27996
3.1383
3.014
2.90436
2.7967
2.68257
2.55929
2.62452
3.19169
3.94388
4.26062
4.19648
4.01363
3.83983
3.69744
3.59175
3.506
3.4192
3.33307
3.24763
3.16151
3.07464
2.98786
2.90205
2.82067
2.74801
2.68342
2.62348
2.56567
2.50832
2.45069
2.39275
2.33434
2.27645
2.22211
2.17246
2.12557
2.07898
2.03111
1.98258
1.93674
1.8967
1.86154
1.82791
1.79319
1.75707
1.7205
1.68345
1.64748
1.61414
1.58647
1.55956
1.52638
1.48865
1.45575
1.42732
1.39872
1.37785
1.35672
1.34029
1.32058
1.31022
1.33767
1.47128
1.69197
1.98589
2.16911
2.30345
2.33917
2.33536
2.31892
2.28451
2.24614
2.21798
2.18765
2.14829
2.11428
2.09505
2.0752
2.04302
2.01561
2.00499
1.99464
1.97863
1.9529
1.92454
1.89921
1.87821
1.83997
3.85425
4.17929
4.08524
3.92679
3.77236
3.62617
3.49397
3.36387
3.22735
3.10533
2.98784
2.88224
2.76282
2.86984
3.56806
4.32219
4.46758
4.41634
4.27215
4.13771
3.99833
3.85459
3.72676
3.62001
3.52722
3.43751
3.34782
3.25863
3.17124
3.08552
2.99975
2.91439
2.83416
2.76224
2.69664
2.63414
2.57281
2.51233
2.45295
2.39429
2.33577
2.27844
2.22428
2.17353
2.125
2.07772
2.03097
1.98425
1.9376
1.89262
1.85218
1.81727
1.78591
1.755
1.72227
1.68803
1.6529
1.61606
1.57376
1.53232
1.50429
1.48342
1.46076
1.43516
1.40851
1.38253
1.35147
1.31621
1.29239
1.27256
1.27063
1.29597
1.40638
1.62638
1.89354
2.08511
2.18643
2.25295
2.25366
2.25178
2.23859
2.19991
2.15244
2.1137
2.07815
2.05046
2.03531
2.02834
2.02152
2.00805
1.9854
1.95287
1.92412
1.89669
1.86803
1.83284
2.62167
3.98019
4.13961
4.02883
3.86518
3.71512
3.58529
3.44988
3.31919
3.18399
3.08037
2.97924
3.1621
3.94776
4.79063
4.90148
4.71208
4.4989
4.36897
4.27533
4.15797
4.02051
3.88074
3.75506
3.64839
3.55086
3.45656
3.36467
3.27489
3.18534
3.09398
3.002
2.91468
2.83629
2.76593
2.70019
2.63627
2.57276
2.5091
2.44534
2.3822
2.32111
2.2637
2.21048
2.16118
2.11529
2.071
2.02596
1.9791
1.93133
1.88445
1.8395
1.79765
1.76151
1.73302
1.7082
1.68014
1.64574
1.60786
1.57019
1.53184
1.4944
1.46792
1.45314
1.4397
1.42039
1.38863
1.35211
1.31492
1.27931
1.2586
1.24998
1.24666
1.26861
1.35092
1.5467
1.78592
1.98921
2.07369
2.16903
2.18567
2.18062
2.16686
2.13167
2.08196
2.0539
2.03956
2.02267
2.00219
1.98382
1.97034
1.9558
1.93262
1.89905
1.86669
1.82553
1.60732
2.95477
4.01856
4.09166
3.97021
3.81058
3.67022
3.54238
3.39687
3.28169
3.2079
3.48333
4.40366
5.15615
5.19187
5.05159
4.84909
4.66379
4.52602
4.41762
4.29952
4.17036
4.03579
3.90169
3.77771
3.66628
3.56404
3.46756
3.37355
3.27854
3.18081
3.08226
2.98806
2.90249
2.82565
2.75511
2.68796
2.62152
2.55426
2.48633
2.41916
2.35505
2.296
2.24238
2.19338
2.14727
2.10133
2.05349
2.0042
1.95585
1.90992
1.86729
1.82987
1.79719
1.76477
1.72717
1.68308
1.64033
1.61011
1.58632
1.55804
1.52692
1.49934
1.47099
1.43885
1.40953
1.39039
1.36904
1.34006
1.30703
1.27635
1.25392
1.24043
1.22899
1.21757
1.23025
1.29269
1.44453
1.65502
1.89394
2.02282
2.07226
2.1056
2.0968
2.08874
2.08119
2.06592
2.03408
2.0061
1.98318
1.96238
1.9368
1.9119
1.89063
1.87008
1.82642
1.40732
1.75757
3.22084
4.01575
4.0337
3.91514
3.77149
3.62037
3.47783
3.47731
3.92048
4.93697
5.54015
5.63992
5.40525
5.18083
5.00219
4.84808
4.70406
4.56788
4.43554
4.3026
4.16649
4.02925
3.89774
3.77562
3.66233
3.55563
3.453
3.35201
3.25104
3.15075
3.05366
2.96253
2.87843
2.80037
2.72692
2.65665
2.58805
2.52002
2.45262
2.38792
2.32845
2.27466
2.22523
2.17786
2.12985
2.07888
2.02372
1.9667
1.91601
1.87726
1.84586
1.81569
1.78397
1.74875
1.70819
1.66478
1.62351
1.58449
1.55198
1.53011
1.51068
1.48822
1.45962
1.42743
1.40399
1.38909
1.36954
1.34057
1.30799
1.27728
1.2496
1.23012
1.21454
1.2014
1.18463
1.18601
1.23042
1.35626
1.57876
1.79587
1.98138
2.00315
2.02263
2.03332
2.03104
2.02942
2.01925
2.00119
1.96907
1.93473
1.90975
1.88575
1.85312
1.81151
1.40007
1.41901
1.93528
3.3972
4.00313
3.98765
3.88027
3.6918
3.76833
4.44822
5.59718
6.00027
5.92716
5.80601
5.6064
5.37561
5.17729
5.00223
4.84232
4.6927
4.55032
4.40819
4.26591
4.12453
3.98833
3.86187
3.74281
3.62838
3.51721
3.40973
3.30642
3.20637
3.10872
3.01424
2.92466
2.84049
2.76071
2.68405
2.6107
2.54184
2.47758
2.41686
2.35922
2.30463
2.2528
2.20248
2.15141
2.09779
2.04166
1.9859
1.93524
1.89241
1.85675
1.82439
1.79008
1.75308
1.72117
1.69155
1.6513
1.6084
1.57586
1.54844
1.51917
1.49207
1.46894
1.44616
1.41985
1.38831
1.35661
1.32842
1.30681
1.29019
1.27239
1.2541
1.23237
1.20942
1.18316
1.15729
1.13888
1.14141
1.18867
1.30528
1.5127
1.7172
1.90036
1.96726
1.9666
1.96939
1.96074
1.9539
1.95056
1.9425
1.92491
1.89321
1.85635
1.80575
1.40001
1.40023
1.44034
2.10116
3.54574
3.94825
3.92297
4.1753
5.09536
6.14396
6.50941
6.37131
6.08336
5.90081
5.74593
5.53584
5.32196
5.13009
4.95536
4.7841
4.61858
4.4717
4.33426
4.19718
4.05634
3.92248
3.79882
3.67962
3.56308
3.44969
3.34097
3.23784
3.14001
3.04603
2.95461
2.86621
2.78237
2.70313
2.62796
2.5572
2.49107
2.42947
2.37247
2.31966
2.27004
2.22157
2.17137
2.11778
2.06119
2.00417
1.95163
1.90735
1.86962
1.83443
1.80017
1.76762
1.73407
1.68956
1.63908
1.59491
1.56212
1.5414
1.52641
1.51225
1.49447
1.46891
1.43194
1.38889
1.35334
1.33196
1.31785
1.30145
1.2801
1.25663
1.23375
1.21151
1.18676
1.15753
1.13187
1.11937
1.11822
1.12384
1.16036
1.27283
1.45868
1.62817
1.7866
1.90886
1.9029
1.89957
1.90421
1.8993
1.89145
1.88592
1.8692
1.81443
1.40001
1.40001
1.40062
1.47101
2.30739
3.36319
4.36941
5.90064
6.58929
6.74536
6.69567
6.46134
6.19676
5.974
5.8104
5.62067
5.4125
5.21345
5.03392
4.86458
4.69472
4.52052
4.35739
4.22139
4.10683
3.99197
3.87079
3.74888
3.62947
3.51491
3.40597
3.30228
3.2024
3.10433
3.00751
2.91395
2.82541
2.74412
2.66964
2.59977
2.53356
2.47137
2.41435
2.36299
2.31549
2.26859
2.21925
2.16541
2.10753
2.0486
1.99363
1.94667