/*--------------------------------*- C++ -*----------------------------------*\
  =========                 |
  \\      /  F ield         | OpenFOAM: The Open Source CFD Toolbox
   \\    /   O peration     | Website:  https://openfoam.org
    \\  /    A nd           | Version:  7
     \\/     M anipulation  |
\*---------------------------------------------------------------------------*/
FoamFile
{
    version     2.0;
    format      ascii;
    class       volScalarField;
    location    "2.5";
    object      T;
}
// * * * * * * * * * * * * * * * * * * * * * * * * * * * * * * * * * * * * * //

dimensions      [0 0 0 1 0 0 0];

internalField   nonuniform List<scalar> 
4032
(
1
1
1
1
1
1
1
1
1
1
1
1
2.23519
2.72802
2.73702
2.74719
2.75704
2.76668
2.77794
2.79191
2.8083
2.82433
2.83677
2.8436
1
1
1
1
1
1
1
1
1
1
1
1
2.21554
2.72436
2.73535
2.74525
2.75511
2.76452
2.77546
2.78894
2.80476
2.82022
2.83215
2.83877
1
1
1
1
1
1
1
1
1
1
1
1
2.16927
2.71871
2.73216
2.74197
2.75191
2.76108
2.77162
2.78454
2.79969
2.81455
2.82587
2.83249
1
1
1
1
1
1
1
1
1
1
1
1
2.09544
2.70575
2.72747
2.73749
2.74759
2.75645
2.76651
2.77875
2.79296
2.80661
2.81629
2.82125
1
1
1
1
1
1
1
1
1
1
1
1
1.99063
2.68113
2.71944
2.72968
2.7398
2.7481
2.75713
2.76792
2.78038
2.79265
2.80129
2.80725
1
1
1
1
1
1
1
1
1
1
1
1
1.84985
2.63973
2.70429
2.7165
2.72797
2.73631
2.74464
2.75462
2.76618
2.77692
2.7813
2.77855
1
1
1
1
1
1
1
1
1
1
1
1
1.65918
2.57173
2.68153
2.70009
2.71378
2.72215
2.72959
2.73762
2.74432
2.7474
2.74522
2.74112
1
1
1
1
1
1
1
1
1
1
1
1
1.38527
2.45743
2.65723
2.67851
2.69554
2.70459
2.71117
2.71563
2.71727
2.71813
2.71897
2.73162
1
1
1
1
1
1
1
1
1
1
1
1
1.048
2.32823
2.6581
2.66217
2.67121
2.67929
2.68382
2.68565
2.68133
2.66934
2.6264
2.52894
1
1
1
1
1
1
1
1
1
1
1
1
1.00056
2.17176
2.61918
2.62797
2.63862
2.64793
2.6497
2.6482
2.63797
2.61125
2.56176
2.40429
1
1
1
1
1
1
1
1
1
1
1
1
0.999995
1.90625
2.56603
2.61387
2.62127
2.62427
2.62097
2.61307
2.59587
2.55959
2.50031
2.32614
1
1
1
1
1
1
1
1
1
1
1
1
0.999999
1.49165
2.43428
2.59276
2.60165
2.60079
2.59401
2.58021
2.55546
2.51591
2.44256
2.29098
1
1
1
1
1
1
1
1
1
1
1
1
1
1.06765
2.25438
2.57017
2.57427
2.57355
2.56581
2.54986
2.5212
2.47923
2.40092
2.28631
1
1
1
1
1
1
1
1
1
1
1
1
1
1.00098
2.00838
2.50123
2.5394
2.53896
2.53378
2.51916
2.49253
2.4483
2.37447
2.28348
1
1
1
1
1
1
1
1
1
1
1
1
1
0.999994
1.51114
2.36553
2.51027
2.50696
2.50283
2.49044
2.4677
2.42339
2.35921
2.28439
1
1
1
1
1
1
1
1
1
1
1
1
1
0.999998
1.06613
2.16675
2.47207
2.46964
2.46916
2.45934
2.43951
2.4009
2.34715
2.28356
1
1
1
1
1
1
1
1
1
1
1
1
1
1
1.00082
1.7755
2.37065
2.44376
2.43771
2.42873
2.40973
2.37761
2.33377
2.28021
1
1
1
1
1
1
1
1
1
1
1
1
1
1
0.999998
1.17672
2.19112
2.42252
2.40914
2.40022
2.38083
2.3515
2.31458
2.27019
1
1
1
1
1
1
1
1
1
1
1
1
1
1
0.999999
1.00681
1.89744
2.34458
2.37825
2.36768
2.34964
2.32345
2.29168
2.25446
1
1
1
1
1
1
1
1
1
1
1
1
1
1
1
1.00001
1.27271
2.16585
2.35965
2.33856
2.32034
2.29776
2.27133
2.23936
1
1
1
1
1
1
1
1
1
1
1
1
1
1
1
1
1.0167
1.88599
2.30635
2.30331
2.2885
2.27017
2.24809
2.22115
1
1
1
1
1
1
1
1
1
1
1
1
1
1
1
1
1.00007
1.28239
2.11912
2.28839
2.26507
2.24674
2.22571
2.20213
1
1
1
1
1
1
1
1
1
1
1
1
1
1
1
1
1
1.01783
1.76908
2.22859
2.23744
2.22122
2.20244
2.18154
1
1
1
1
1
1
1
1
1
1
1
1
1
1
1
1
1
1.00011
1.20435
2.01863
2.22424
2.2005
2.18348
2.16419
1
1
1
1
1
1
1
1
1
1
1
1
1
1
1
1
1
1
1.00908
1.54481
2.09053
2.18388
2.16489
2.14617
1
1
1
1
1
1
1
1
1
1
1
1
1
1
1
1
1
1
1.00006
1.08948
1.82154
2.15309
2.14798
2.13136
1
1
1
1
1
1
1
1
1
1
1
1
1
1
1
1
1
1
1
1.00197
1.29559
1.95899
2.12588
2.11165
1
1
1
1
1
1
1
1
1
1
1
1
1
1
1
1
1
1
1
1.00001
1.02149
1.53183
2.00598
2.09712
1
1
1
1
1
1
1
1
1
1
1
1
1
1
1
1
1
1
1
1
1.00024
1.09103
1.7229
2.03113
1
1
1
1
1
1
1
1
1
1
1
1
1
1
1
1
1
1
1
1
1
1.00231
1.22864
1.81913
1
1
1
1
1
1
1
1
1
1
1
1
1
1
1
1
1
1
1
1
1
1.00001
1.01315
1.37356
1
1
1
1
1
1
1
1
1
1
1
1
1
1
1
1
1
1
1
1
1
1
1.00014
1.04172
1
1
1
1
1
1
1
1
1
1
1
1
1
1
1
1
1
1
1
1
1
1
1
1.00073
1
1
1
1
1
1
1
1
1
1
1
1
1
1
1
1
1
1
1
1
1
1
1
1
1
1
1
1
1
1
1
1
1
1
1
1
1
1
1
1
1
1
1
1
1
1
1
1
1
1
1
1
1
1
1
1
1
1
1
1
1
1
1
1
1
1
1
1
1
1
1
1
1
1
1
1
1
1
1
1
1
1
1
1
1
1
1
1
1
1
1
1
1
1
1
1
1
1
1
1
1
1
1
1
1
1
1
1
1
1
1
1
1
1
1
1
1
1
1
1
1
1
1
1
1
1
1
1
1
1
1
1
1
1
1
1
1
1
1
1
1
1
1
1
1
1
1
1
1
1
1
1
1
1
1
1
1
1
1
1
1
1
1
1
1
1
1
1
1.70155
1.20539
0.955898
0.981056
1.08105
1.19441
1.33095
1.46866
1.59946
1.65023
1.64902
1.6371
1.64382
1.69797
1.77157
1.79102
1.77997
1.73301
1.69073
1.6901
1.71497
1.74223
1.7435
1.73296
1.70461
1.68758
1.68808
1.70302
1.72525
1.72935
1.72386
1.70557
1.68965
1.68499
1.68514
1.70392
1.85997
2.49995
2.82153
2.79565
2.74536
2.70755
2.66615
2.63066
2.6011
2.57598
2.55593
2.54158
2.52709
2.50613
2.48693
2.46983
2.45385
2.43866
2.42095
2.40177
2.38095
2.36183
2.34552
2.33067
2.31919
2.30623
2.29167
2.27758
2.26116
2.242
2.22501
2.21301
2.204
2.19709
2.19268
2.1873
2.17979
2.16878
2.14978
2.12799
2.11547
2.10874
2.10364
2.10019
2.09845
2.09482
2.08848
2.07745
2.05537
2.03097
2.01993
2.0146
2.01016
2.00757
2.00707
2.00135
1.99174
1.97821
1.95683
1.93048
1.92759
1.66552
1.52302
1.37657
1.28324
1.26405
1.2717
1.3043
1.33417
1.36001
1.37788
1.4012
1.44412
1.5089
1.59187
1.64351
1.64935
1.64412
1.63379
1.63542
1.65485
1.67855
1.68394
1.68136
1.67117
1.66201
1.66276
1.67306
1.6832
1.68724
1.68669
1.68096
1.67287
1.66558
1.67722
1.78585
1.97876
2.25402
2.60007
2.65985
2.65336
2.63218
2.60261
2.579
2.56436
2.54733
2.52962
2.5115
2.49357
2.47627
2.46131
2.4479
2.435
2.42136
2.40517
2.38776
2.36883
2.34988
2.33307
2.31712
2.30263
2.28966
2.27799
2.26686
2.25467
2.2404
2.22449
2.20942
2.19812
2.19002
2.18295
2.17626
2.16905
2.15985
2.1459
2.12788
2.11249
2.10386
2.09867
2.09456
2.0909
2.08618
2.07945
2.06939
2.05349
2.0336
2.01844
2.01095
2.00637
2.00228
1.99793
1.99215
1.98368
1.97241
1.95728
1.93344
2.0436
1.84546
1.70229
1.58158
1.48691
1.39686
1.31294
1.28879
1.28218
1.26839
1.27118
1.29601
1.3253
1.35156
1.39589
1.44591
1.47855
1.51104
1.54328
1.56045
1.57465
1.58572
1.59297
1.59877
1.60511
1.61125
1.61722
1.61997
1.61636
1.60995
1.60777
1.60951
1.61536
1.63953
1.72673
1.9455
2.04852
2.05703
2.2211
2.42545
2.52835
2.5409
2.52975
2.51136
2.49139
2.48106
2.47023
2.45359
2.43363
2.41921
2.40751
2.39744
2.38852
2.37757
2.36582
2.35295
2.33782
2.32189
2.30595
2.28869
2.27088
2.25553
2.24309
2.23358
2.22628
2.21879
2.20975
2.1977
2.18336
2.17054
2.16053
2.15173
2.14252
2.13237
2.12273
2.11263
2.10108
2.0896
2.08183
2.07632
2.07072
2.06409
2.05544
2.04482
2.03444
2.02458
2.01373
2.0012
1.99139
1.98531
1.97922
1.97165
1.9623
1.95185
1.94271
1.92921
2.10323
1.95384
1.82012
1.70218
1.62801
1.5543
1.45554
1.37768
1.36487
1.35108
1.32794
1.3033
1.28909
1.28651
1.29623
1.31795
1.34921
1.39489
1.44407
1.4695
1.48002
1.48958
1.50144
1.51675
1.53683
1.5584
1.56655
1.56518
1.55729
1.5467
1.54337
1.54588
1.56631
1.67123
1.86639
2.00153
2.02553
2.01082
2.01847
2.12633
2.30464
2.39769
2.43005
2.44496
2.42744
2.41364
2.39915
2.38424
2.36787
2.35382
2.34504
2.33687
2.32924
2.32011
2.31173
2.30214
2.28964
2.27579
2.26174
2.24699
2.23152
2.21643
2.20407
2.19568
2.18947
2.18404
2.17761
2.16883
2.15594
2.13988
2.12673
2.11629
2.10602
2.09675
2.08959
2.08314
2.07551
2.06479
2.0531
2.04496
2.03812
2.02977
2.01914
2.00948
2.00361
1.99891
1.99305
1.98338
1.96971
1.95833
1.95012
1.94145
1.93168
1.92247
1.91732
1.91088
2.15041
2.02937
1.91519
1.79959
1.71832
1.65766
1.59171
1.50626
1.43292
1.4093
1.3902
1.36849
1.34942
1.32163
1.29494
1.29027
1.29305
1.30816
1.3412
1.37908
1.40273
1.42297
1.44379
1.45975
1.48017
1.50286
1.51584
1.51968
1.51964
1.51396
1.51315
1.52397
1.61765
1.83644
1.96092
2.00776
2.01481
2.00833
1.99347
1.98982
2.05901
2.20952
2.32009
2.37627
2.38781
2.38122
2.36253
2.34345
2.32629
2.30999
2.29881
2.2904
2.28185
2.27285
2.26511
2.25768
2.24817
2.23599
2.2219
2.20686
2.19142
2.17731
2.16706
2.16004
2.15459
2.14954
2.14358
2.13595
2.12442
2.10617
2.08749
2.07592
2.06813
2.06186
2.05642
2.05131
2.04551
2.03634
2.0214
2.00664
1.99628
1.98723
1.97968
1.97424
1.97025
1.96612
1.96155
1.95529
1.94319
1.92546
1.91198
1.90306
1.89585
1.89102
1.88829
1.88316
2.17684
2.07689
1.98331
1.88618
1.79547
1.72385
1.66957
1.61647
1.55914
1.48421
1.43988
1.43053
1.42034
1.39603
1.36136
1.32603
1.3024
1.30099
1.30616
1.31278
1.32551
1.34377
1.37333
1.40374
1.42686
1.44816
1.46669
1.48822
1.49166
1.49067
1.50826
1.59975
1.8278
1.96012
1.99803
2.00962
2.01003
1.9998
1.98617
1.96999
1.96156
1.99858
2.12354
2.27706
2.33197
2.34574
2.34224
2.32636
2.31033
2.29183
2.27396
2.2586
2.2472
2.23876
2.23228
2.22593
2.21824
2.20866
2.19611
2.1808
2.16505
2.15175
2.14182
2.13379
2.12651
2.11945
2.1125
2.10502
2.09484
2.07874
2.05903
2.04669
2.03932
2.03291
2.02772
2.02262
2.01754
2.00978
1.9936
1.97171
1.95798
1.95074
1.94499
1.94067
1.93888
1.93529
1.9309
1.92633
1.91705
1.89571
1.87365
1.86541
1.86169
1.85885
1.85888
1.85484
2.19837
2.11327
2.02856
1.94405
1.87091
1.79994
1.71901
1.66981
1.63492
1.58642
1.53165
1.47628
1.45201
1.43825
1.41792
1.39188
1.36438
1.32971
1.30934
1.30876
1.31185
1.32478
1.33648
1.34756
1.36089
1.37867
1.40007
1.42914
1.45002
1.47382
1.5988
1.80485
1.97858
2.00423
2.01197
2.01195
2.00385
1.9882
1.9747
1.96001
1.94983
1.93933
1.95688
2.05879
2.2014
2.27932
2.31018
2.30779
2.30028
2.28447
2.26517
2.24462
2.22332
2.21208
2.20603
2.20231
2.19586
2.18818
2.17791
2.16375
2.14745
2.13344
2.12354
2.11509
2.10626
2.0966
2.08649
2.07668
2.06681
2.05476
2.03979
2.02714
2.01898
2.01206
2.00574
1.99989
1.99402
1.98586
1.97023
1.94646
1.9317
1.9258
1.92015
1.91516
1.91302
1.90938
1.90402
1.8993
1.89138
1.87328
1.84872
1.83765
1.83432
1.83123
1.83029
1.82701
2.21016
2.13683
2.06358
1.98473
1.91737
1.85762
1.78813
1.72207
1.6737
1.64085
1.6062
1.56461
1.5134
1.46931
1.45614
1.44612
1.42909
1.40057
1.36035
1.33205
1.32515
1.32652
1.33085
1.3345
1.33373
1.33239
1.3371
1.35669
1.386
1.51861
1.7631
1.92151
1.99437
2.00082
1.99943
1.9911
1.98366
1.97412
1.965
1.95305
1.93966
1.92679
1.91109
1.91572
1.97307
2.09579
2.21
2.25229
2.27077
2.27309
2.2552
2.23567
2.21024
2.19134
2.18195
2.1759
2.17302
2.16765
2.16006
2.14963
2.13411
2.11654
2.10512
2.09683
2.0883
2.079
2.06824
2.05576
2.04287
2.03153
2.02178
2.0122
2.00289
1.99454
1.98702
1.97994
1.97288
1.96441
1.95199
1.93425
1.91682
1.9074
1.90149
1.89582
1.8913
1.8883
1.88361
1.87693
1.86796
1.85469
1.83821
1.8225
1.81395
1.81014
1.80825
1.8047
2.21732
2.15304
2.08838
2.01984
1.95554
1.8958
1.83809
1.78397
1.73278
1.67819
1.64331
1.62002
1.58595
1.54349
1.49739
1.47189
1.46095
1.44601
1.42378
1.3976
1.36911
1.34199
1.3313
1.33367
1.33616
1.3343
1.33414
1.3401
1.44515
1.70405
1.83643
1.89969
1.94286
1.94538
1.94221
1.94278
1.94735
1.94534
1.93928
1.93118
1.91991
1.90577
1.89363
1.88259
1.86905
1.8925
1.99071
2.1116
2.19199
2.22597
2.22985
2.2202
2.201
2.17783
2.15813
2.14908
2.14376
2.14199
2.13754
2.13063
2.11962
2.10066
2.08316
2.07443
2.06696
2.0591
2.05054
2.04006
2.02687
2.01276
2.0013
1.99364
1.98672
1.9787
1.9704
1.96198
1.95311
1.94416
1.93553
1.92569
1.91142
1.89499
1.88582
1.88029
1.87443
1.86692
1.85801
1.84916
1.84143
1.83528
1.82829
1.8178
1.80521
1.79567
1.79151
1.78528
2.2164
2.16101
2.10324
2.04395
1.98763
1.93011
1.87134
1.8254
1.78404
1.73493
1.68436
1.64776
1.62254
1.59626
1.5645
1.52893
1.48679
1.46792
1.46231
1.44958
1.42897
1.40032
1.36444
1.34877
1.34655
1.34197
1.34915
1.42512
1.66161
1.81052
1.84888
1.84733
1.84848
1.85119
1.85698
1.86413
1.87115
1.88301
1.89192
1.88961
1.88206
1.87947
1.87286
1.86299
1.84881
1.82798
1.8334
1.88829
1.9984
2.1057
2.16046
2.18234
2.18212
2.16476
2.13986
2.12102
2.11245
2.10913
2.10849
2.10414
2.09773
2.08452
2.06248
2.04672
2.03925
2.03336
2.02744
2.02043
2.01214
2.0006
1.98541
1.97138
1.96303
1.95763
1.95157
1.94401
1.93552
1.92763
1.92074
1.91348
1.90382
1.88977
1.87295
1.85913
1.8496
1.84217
1.83492
1.8275
1.82141
1.8176
1.8143
1.80916
1.80001
1.78731
1.77757
1.767
2.21116
2.16388
2.113
2.06154
2.01082
1.95916
1.90664
1.85875
1.8152
1.7744
1.73378
1.69668
1.65471
1.61826
1.60123
1.57961
1.545
1.50772
1.48543
1.47367
1.46297
1.44842
1.42573
1.39078
1.3675
1.36825
1.43232
1.64796
1.83257
1.85659
1.8467
1.83065
1.81636
1.80412
1.79527
1.78619
1.77797
1.78379
1.79205
1.80435
1.81765
1.83013
1.83096
1.82872
1.81971
1.8064
1.79339
1.78331
1.80559
1.89024
2.00498
2.09176
2.12636
2.13143
2.12168
2.09725
2.08182
2.07548
2.07334
2.07242
2.06821
2.0612
2.04527
2.02223
2.00936
2.0036
1.99906
1.99498
1.98937
1.98267
1.97234
1.95566
1.93952
1.93076
1.9258
1.92106
1.91613
1.91096
1.90522
1.89867
1.89095
1.87971
1.86132
1.84045
1.82743
1.81938
1.813
1.80875
1.80586
1.8032
1.8002
1.79635
1.78997
1.77879
1.7654
1.74913
2.20297
2.16173
2.11657
2.0724
2.02632
1.97707
1.93154
1.88939
1.84608
1.80039
1.76408
1.7327
1.69689
1.65719
1.62469
1.60381
1.58132
1.55602
1.53309
1.50539
1.47833
1.47091
1.46052
1.43735
1.42578
1.48601
1.68671
1.86522
1.89007
1.87082
1.84653
1.82496
1.80987
1.79713
1.78451
1.7729
1.75919
1.74077
1.72458
1.7225
1.7282
1.73757
1.74848
1.76017
1.76661
1.76505
1.75922
1.74678
1.74214
1.75092
1.79794
1.89618
1.99426
2.05661
2.07569
2.07153
2.05588
2.04369
2.03924
2.03882
2.03556
2.03061
2.0227
2.00566
1.98372
1.97212
1.96698
1.96324
1.95992
1.95527
1.94978
1.94109
1.92474
1.90532
1.89681
1.89378
1.89101
1.88834
1.88483
1.87951
1.87263
1.86308
1.84741
1.82529
1.80672
1.79764
1.79392
1.79179
1.78987
1.78805
1.78525
1.78159
1.77616
1.76595
1.75176
1.73217
2.18942
2.15356
2.1152
2.07607
2.03433
1.99103
1.95126
1.91013
1.8685
1.82827
1.79407
1.75724
1.72362
1.6914
1.66256
1.63448
1.60379
1.58196
1.56776
1.54776
1.51852
1.4878
1.47631
1.47462
1.53175
1.73606
1.91442
1.93483
1.91345
1.88626
1.86009
1.83905
1.81902
1.79976
1.78162
1.76509
1.7479
1.72725
1.70908
1.69642
1.68613
1.67749
1.6713
1.67321
1.67788
1.68514
1.68819
1.69409
1.69416
1.69276
1.69606
1.71752
1.78605
1.88342
1.96492
2.01376
2.01772
2.00975
2.00654
2.005
2.00501
2.00126
1.99486
1.9851
1.96819
1.94691
1.93456
1.92953
1.92587
1.92429
1.921
1.91626
1.9081
1.88967
1.87083
1.8655
1.86281
1.8603
1.85768
1.85386
1.84853
1.84074
1.82816
1.80908
1.79048
1.77984
1.77566
1.77401
1.7727
1.77111
1.76872
1.76488
1.75815
1.74613
1.73229
1.71363
2.17444
2.14309
2.11084
2.0758
2.03754
2.00054
1.96432
1.92644
1.88548
1.85066
1.81741
1.78302
1.74736
1.71745
1.69158
1.66438
1.63658
1.60757
1.58493
1.57057
1.54979
1.52276
1.51383
1.57179
1.77518
1.95599
1.97691
1.95623
1.93012
1.90564
1.87804
1.84995
1.8262
1.80673
1.78948
1.77241
1.75436
1.7311
1.70498
1.68477
1.67166
1.66076
1.65135
1.64169
1.63305
1.62367
1.61336
1.61303
1.6133
1.61568
1.62341
1.62766
1.63988
1.68239
1.75784
1.85222
1.93033
1.96365
1.96192
1.96768
1.97648
1.97385
1.96789
1.95969
1.94778
1.9298
1.90891
1.89888
1.89525
1.89318
1.89124
1.88702
1.88245
1.87346
1.85408
1.83807
1.83343
1.8305
1.82757
1.8246
1.82104
1.81541
1.80576
1.79081
1.77458
1.7637
1.75825
1.75498
1.75245
1.75015
1.74789
1.74483
1.73857
1.72632
1.70952
1.69026
2.15745
2.13132
2.1032
2.07171
2.03793
2.00614
1.97226
1.93607
1.90037
1.86922
1.83566
1.80282
1.76911
1.74283
1.71412
1.68618
1.66043
1.63785
1.6135
1.58585
1.56491
1.55947
1.6242
1.83171
2.00207
2.01612
1.9942
1.96717
1.94333
1.91749
1.88762
1.86083
1.83898
1.82024
1.80275
1.78499
1.76551
1.74153
1.7137
1.6881
1.66931
1.6553
1.64225
1.63009
1.61779
1.60468
1.5922
1.57706
1.56063
1.55057
1.55101
1.55257
1.55245
1.55827
1.5786
1.62685
1.71519
1.8161
1.88226
1.9224
1.92789
1.9385
1.94195
1.93747
1.92533
1.91092
1.89418
1.87867
1.87081
1.86593
1.86159
1.85936
1.85662
1.85095
1.83806
1.81857
1.80596
1.80074
1.79739
1.79511
1.79293
1.78941
1.78283
1.7723
1.75857
1.74607
1.7389
1.73494
1.73196
1.72875
1.72419
1.71762
1.71015
1.70175
1.68889
1.67192
2.14217
2.11921
2.0941
2.06538
2.03644
2.00713
1.97636
1.94203
1.91238
1.88191
1.85109
1.81736
1.78879
1.76228
1.73405
1.70754
1.67999
1.65857
1.63407
1.60779
1.60018
1.66791
1.88368
2.0515
2.05323
2.03069
2.00239
1.97739
1.9529
1.92422
1.89484
1.87023
1.84923
1.82994
1.81149
1.79271
1.77196
1.74748
1.71931
1.69454
1.67639
1.66065
1.6458
1.63094
1.61569
1.59921
1.58132
1.56167
1.54291
1.53168
1.5242
1.51437
1.50595
1.50196
1.49527
1.49586
1.51276
1.56608
1.66469
1.77574
1.83851
1.87876
1.8993
1.89906
1.89855
1.89232
1.8808
1.8679
1.85613
1.84623
1.83896
1.83183
1.82446
1.8202
1.81489
1.80303
1.7865
1.77478
1.76939
1.76678
1.76547
1.76395
1.76083
1.75459
1.74379
1.72933
1.71753
1.71166
1.70834
1.70541
1.70055
1.6926
1.68358
1.6739
1.66644
1.65627
2.12671
2.10575
2.08225
2.05727
2.03243
2.00509
1.97488
1.94591
1.91929
1.89017
1.85984
1.82896
1.8049
1.77697
1.75074
1.72281
1.70021
1.67354
1.64816
1.64286
1.71961
1.93611
2.09782
2.09331
2.0655
2.03506
2.00941
1.98527
1.95835
1.92952
1.90202
1.8778
1.85614
1.83627
1.81752
1.79885
1.77897
1.75617
1.729
1.70168
1.68085
1.66429
1.64905
1.63375
1.61756
1.59989
1.58051
1.55788
1.53542
1.51891
1.50708
1.49625
1.48843
1.4822
1.47202
1.46233
1.45243
1.44465
1.457
1.50762
1.6128
1.71732
1.8098
1.83398
1.85471
1.86374
1.86229
1.85676
1.84425
1.83233
1.82275
1.81367
1.80457
1.79737
1.79071
1.78233
1.7697
1.75523
1.74686
1.74353
1.74129
1.73958
1.73765
1.73401
1.72704
1.71512
1.69963
1.68944
1.68621
1.68369
1.67867
1.67013
1.66091
1.65244
1.64781
1.63991
2.11352
2.09349
2.07057
2.04775
2.02479
2.00009
1.97223
1.94732
1.921
1.89477
1.86506
1.84081
1.81595
1.78996
1.76302
1.7375
1.71324
1.68574
1.68804
1.77555
1.99153
2.13821
2.13428
2.10489
2.07225
2.04413
2.01798
1.9909
1.9624
1.93354
1.90632
1.88186
1.86005
1.84005
1.82093
1.80176
1.78149
1.75889
1.73275
1.70564
1.68429
1.668
1.65295
1.63758
1.62114
1.60341
1.5837
1.56071
1.53668
1.51681
1.50144
1.48931
1.47933
1.46822
1.45641
1.44545
1.43374
1.42212
1.41064
1.40157
1.41261
1.45696
1.56219
1.66929
1.76577
1.80586
1.81656
1.82221
1.82068
1.81871
1.81322
1.80422
1.79367
1.78281
1.7735
1.76455
1.75394
1.74179
1.73082
1.72405
1.72159
1.72108
1.72104
1.71914
1.71272
1.70114
1.68769
1.67406
1.66201
1.65364
1.64829
1.64395
1.63962
1.63557
1.63209
1.62408
2.094
2.07559
2.05521
2.03512
2.01425
1.99036
1.96713
1.94583
1.92183
1.8954
1.86964
1.84853
1.82332
1.79917
1.77217
1.7474
1.72168
1.7254
1.83789
2.05882
2.18028
2.16831
2.13253
2.09908
2.0743
2.05021
2.02383
1.99585
1.96667
1.93627
1.90723
1.88213
1.86056
1.84104
1.82246
1.80386
1.78398
1.76132
1.73478
1.70681
1.68485
1.66896
1.65443
1.63958
1.62366
1.60583
1.58512
1.56123
1.53629
1.5164
1.50126
1.48849
1.47599
1.46306
1.45101
1.4389
1.42511
1.40851
1.39279
1.38235
1.3757
1.36965
1.37765
1.41965
1.51255
1.62942
1.71852
1.77255
1.77574
1.7822
1.78821
1.78735
1.78247
1.77258
1.76107
1.75075
1.74021
1.72841
1.71858
1.71322
1.70948
1.70537
1.70042
1.6946
1.68869
1.68364
1.67494
1.66135
1.64583
1.63395
1.62749
1.62484
1.62257
1.61992
1.6171
1.60901
2.07756
2.0577
2.03998
2.02248
2.00377
1.98214
1.96189
1.9425
1.92028
1.89408
1.8736
1.85243
1.82949
1.80411
1.77806
1.75493
1.76674
1.89506
2.1287
2.22648
2.21082
2.17157
2.12995
2.09981
2.07661
2.05241
2.02636
1.99919
1.97007
1.93815
1.90721
1.88178
1.86034
1.84064
1.82173
1.80276
1.78265
1.76021
1.73458
1.70731
1.6836
1.66535
1.64954
1.63441
1.61934
1.60337
1.58494
1.56299
1.53917
1.51695
1.49855
1.48432
1.47258
1.46193
1.45098
1.43837
1.42416
1.40673
1.38887
1.3738
1.36165
1.352
1.34776
1.34474
1.34981
1.38707
1.4674
1.57752
1.66373
1.71989
1.75449
1.75833
1.75558
1.75218
1.74444
1.73345
1.72064
1.71103
1.708
1.70482
1.70021
1.69306
1.68543
1.67942
1.67224
1.66143
1.65095
1.64293
1.63381
1.62391
1.61719
1.61271
1.60843
1.60371
1.60118
1.59492
2.06674
2.04766
2.0275
2.01045
1.99285
1.97265
1.95388
1.93588
1.91521
1.89177
1.87293
1.85099
1.82995
1.80518
1.78218
1.80075
1.9612
2.178
2.2664
2.24234
2.19942
2.16151
2.13018
2.10322
2.07783
2.05162
2.0244
1.99666
1.96774
1.93706
1.90678
1.88041
1.85763
1.83655
1.81617
1.79584
1.77489
1.75275
1.7292
1.70488
1.68196
1.66226
1.64476
1.62808
1.61171
1.59534
1.57845
1.56025
1.54053
1.52083
1.50279
1.4858
1.47029
1.45766
1.44726
1.43723
1.42644
1.4133
1.39781
1.379
1.36053
1.34697
1.33941
1.33153
1.32615
1.32236
1.32311
1.34499
1.41759
1.51545
1.61474
1.67648
1.71858
1.73004
1.7291
1.7224
1.71009
1.69889
1.69095
1.68433
1.67948
1.67773
1.67568
1.67036
1.66024
1.64733
1.63449
1.62373
1.6173
1.61392
1.61027
1.60541
1.59845
1.58996
1.58186
1.57099
2.03458
2.03286
2.01565
1.99838
1.98093
1.96254
1.94561
1.92839
1.90666
1.88718
1.86933
1.85012
1.82806
1.80689
1.83511
2.01785
2.22136
2.29571
2.27936
2.23566
2.19271
2.15577
2.12629
2.1006
2.07397
2.04664
2.01875
1.99049
1.96216
1.93392
1.90569
1.8782
1.85269
1.82908
1.80657
1.78464
1.76299
1.7415
1.72011
1.69865
1.67737
1.65727
1.63877
1.6213
1.60414
1.58669
1.56874
1.55073
1.5336
1.51805
1.50348
1.48882
1.47429
1.46068
1.44733
1.43401
1.4211
1.4101
1.39915
1.38522
1.36925
1.3553
1.34294
1.3304
1.32159
1.31294
1.30516
1.29539
1.29247
1.30704
1.37265
1.46796
1.57746
1.63744
1.68047
1.69422
1.69362
1.68901
1.67949
1.67013
1.66561
1.66163
1.65467
1.64705
1.64166
1.63394
1.62112
1.61162
1.60873
1.60545
1.59975
1.59008
1.57989
1.5715
1.56524
1.55506
1.87671
2.00992
2.00191
1.98508
1.96854
1.95187
1.93609
1.9193
1.89965
1.88172
1.86312
1.84577
1.83002
1.87134
2.08437
2.2697
2.29283
2.28184
2.25246
2.22142
2.18818
2.15307
2.11989
2.09025
2.06279
2.03544
2.00773
1.97989
1.95238
1.92521
1.8978
1.87024
1.84376
1.81913
1.79597
1.77369
1.75211
1.73124
1.71101
1.6911
1.6712
1.65158
1.63286
1.61522
1.59838
1.58202
1.5657
1.54889
1.53159
1.51466
1.49916
1.48563
1.4738
1.46247
1.45058
1.43788
1.42482
1.41204
1.39767
1.38182
1.36998
1.36056
1.34994
1.33823
1.32667
1.3156
1.30307
1.28911
1.27984
1.27033
1.26953
1.28246
1.33705
1.43501
1.53504
1.60054
1.63265
1.65105
1.65609
1.65788
1.65659
1.64963
1.64052
1.63335
1.62482
1.61569
1.61031
1.60804
1.60527
1.5997
1.59039
1.5778
1.56756
1.5588
1.5504
1.54108
1.50378
1.90162
1.98716
1.97482
1.95583
1.93952
1.92578
1.90954
1.89246
1.87277
1.85749
1.84982
1.91177
2.13274
2.32694
2.341
2.30155
2.25683
2.227
2.20415
2.17689
2.14491
2.11089
2.07848
2.04922
2.02138
1.99386
1.96655
1.93951
1.91254
1.88536
1.85823
1.83218
1.80809
1.7858
1.76473
1.74442
1.72469
1.70526
1.68589
1.66643
1.64709
1.62842
1.61071
1.59405
1.57837
1.56323
1.54799
1.53216
1.51567
1.49951
1.48415
1.4696
1.4566
1.44632
1.43781
1.42822
1.41647
1.40332
1.38981
1.37594
1.36152
1.34983
1.34235
1.33518
1.32556
1.31173
1.29696
1.28228
1.26836
1.26069
1.25651
1.25427
1.26531
1.30587
1.39592
1.49014
1.55666
1.58523
1.61208
1.626
1.62912
1.62849
1.62316
1.61168
1.60491
1.60204
1.59752
1.58986
1.58202
1.57615
1.56988
1.56056
1.54877
1.53931
1.52814
1.09291
1.60452
1.90626
1.96474
1.94889
1.9287
1.91317
1.89948
1.88144
1.8643
1.86742
1.95303
2.18811
2.34543
2.34398
2.31568
2.27744
2.2398
2.20852
2.18241
2.15547
2.12687
2.09638
2.06475
2.03419
2.00549
1.97816
1.95171
1.92563
1.89949
1.87326
1.84744
1.82288
1.8001
1.77904
1.75923
1.74019
1.72148
1.70282
1.68382
1.66447
1.64522
1.62667
1.60916
1.59278
1.57724
1.5619
1.54626
1.53047
1.51513
1.50034
1.48622
1.47342
1.46202
1.45097
1.43888
1.42497
1.4106
1.39992
1.39178
1.38206
1.37067
1.35972
1.34769
1.3333
1.31914
1.30861
1.29792
1.28538
1.27267
1.26196
1.25392
1.24852
1.24315
1.23734
1.24411
1.27614
1.34737
1.43415
1.51633
1.56121
1.57757
1.58951
1.59621
1.60046
1.60015
1.59735
1.58819
1.57862
1.57131
1.5645
1.55435
1.54454
1.53755
1.53151
1.51847
1.0027
1.16136
1.67418
1.89803
1.94085
1.92455
1.90662
1.88752
1.87279
1.88263
2.01068
2.23637
2.36379
2.36418
2.32461
2.28351
2.24998
2.21976
2.19006
2.16127
2.13342
2.10607
2.07843
2.04978
2.02101
1.99284
1.96568
1.93964
1.91454
1.88999
1.86588
1.84227
1.81945
1.79787
1.77748
1.75797
1.73911
1.72076
1.70265
1.68439
1.6658
1.64722
1.62913
1.61177
1.59518
1.57914
1.5632
1.54683
1.52979
1.51257
1.4969
1.48455
1.47441
1.46454
1.45427
1.44294
1.42976
1.41552
1.40197
1.38901
1.37743
1.3692
1.36186
1.35227
1.33897
1.32352
1.31142
1.30343
1.29412
1.28166
1.26882
1.2575
1.24734
1.23983
1.23356
1.22795
1.22026
1.22078
1.24315
1.30338
1.3985
1.47901
1.53727
1.55151
1.56212
1.56947
1.57362
1.57405
1.57209
1.56776
1.55727
1.54398
1.53514
1.52747
1.51681
1.50426
1.00002
1.00739
1.23713
1.71007
1.88828
1.91765
1.90381
1.88145
1.9082
2.06805
2.28968
2.36063
2.35047
2.33571
2.30468
2.26783
2.23539
2.20486
2.17572
2.14816
2.12168
2.09458
2.06736
2.04057
2.01349
1.98666
1.96048
1.93507
1.91061
1.88728
1.86474
1.84277
1.82138
1.80075
1.78098
1.76187
1.74312
1.72465
1.70665
1.68937
1.67243
1.65514
1.63715
1.6186
1.60005
1.58196
1.56434
1.54692
1.52977
1.51339
1.49865
1.48621
1.47586
1.46618
1.45546
1.44353
1.43326
1.424
1.41126
1.39711
1.38544
1.37486
1.3632
1.3515
1.3401
1.32815
1.31492
1.3002
1.2862
1.27434
1.26533
1.25919
1.25327
1.24712
1.23913
1.22993
1.21823
1.20647
1.19559
1.1964
1.22009
1.27753
1.36574
1.44515
1.51192
1.53655
1.53892
1.54171
1.54317
1.54284
1.54192
1.53923
1.53319
1.52162
1.50883
1.49456
1
1.00007
1.01629
1.30126
1.73199
1.8788
1.88708
1.95461
2.13623
2.31995
2.37953
2.36265
2.33178
2.31397
2.29414
2.26355
2.23178
2.20235
2.17428
2.1461
2.11866
2.0936
2.06847
2.04162
2.01308
1.98566
1.95992
1.93481
1.91045
1.88732
1.86567
1.84547
1.82629
1.80742
1.7885
1.76972
1.75156
1.73423
1.71758
1.70077
1.68286
1.66395
1.64438
1.62442
1.60438
1.58461
1.56536
1.54692
1.52952
1.51348
1.49959
1.48834
1.47885
1.46962
1.45996
1.45017
1.43954
1.42465
1.40775
1.39287
1.38121
1.37301
1.36607
1.35859
1.34869
1.33511
1.31731
1.29801
1.28234
1.27301
1.26717
1.26142
1.25463
1.24683
1.23845
1.22943
1.21873
1.20565
1.19306
1.18584
1.18247
1.18454
1.20208
1.2591
1.34408
1.41166
1.47233
1.51655
1.51604
1.51507
1.51753
1.51694
1.51484
1.51234
1.50686
1.49084
1
1
1.00019
1.02937
1.36251
1.69704
1.9428
2.24126
2.35902
2.40868
2.41162
2.38828
2.36109
2.33671
2.31657
2.29062
2.26098
2.23135
2.20313
2.17531
2.1466
2.11604
2.08521
2.05709
2.0329
2.00891
1.98344
1.95774
1.93292
1.90986
1.8889
1.86943
1.85043
1.83113
1.81146
1.79201
1.77311
1.7551
1.73766
1.71966
1.70024
1.67973
1.65891
1.63842
1.61828
1.59824
1.57846
1.5595
1.54166
1.52538
1.51141
1.50008
1.4906
1.48177
1.47261
1.46204
1.44819
1.43043
1.4122
1.39778
1.38716
1.37821
1.36873
1.35783
1.34539
1.3315
1.31644
1.30032
1.28544
1.2757
1.2679
1.26072
1.25409
1.2479
1.24134
1.23308
1.22102
1.20478
1.19144
1.18335
1.17746
1.17314
1.16887
1.16867
1.18284
1.22852
1.29818
1.38293
1.43231
1.47509
1.50162
1.50227
1.49748
1.49354
1.48977
1.47982
1
1
1
1.00056
1.04569
1.44001
2.28797
2.55022
2.5267
2.50065
2.48783
2.46166
2.43112
2.40123
2.37573
2.34868
2.31807
2.28373
2.24932
2.21581
2.1824
2.1494
2.11694
2.08547
2.0544
2.02423
1.99562
1.96848
1.94306
1.91947
1.89742
1.87636
1.85576
1.8354
1.81545
1.79634
1.77819
1.76016
1.74096
1.72013
1.69817
1.67574
1.6539
1.63319
1.61346
1.59409
1.57461
1.55516
1.53629
1.51892
1.50437
1.49292
1.48359
1.47506
1.46604
1.45558
1.44418
1.43474
1.42606
1.41437
1.40121
1.38871
1.37673
1.36448
1.35086
1.33444
1.3153
1.30257
1.29478
1.28568
1.2769
1.26898
1.26191
1.25444
1.24528
1.23528
1.22202
1.20632
1.19289
1.18348
1.17692
1.17095
1.16548
1.16126
1.15702
1.15497
1.16283
1.19636
1.26224
1.33975
1.4064
1.45117
1.47743
1.48203
1.4791
1.46745
1
1
1
1
1.00099
1.7292
2.74351
2.73757
2.67783
2.62467
2.58987
2.55305
2.51328
2.47584
2.44377
2.41184
2.3773
2.33697
2.29558
2.25534
2.2166
2.17954
2.14397
2.10947
2.07566
2.04303
2.01225
1.9838
1.95773
1.9337
1.91106
1.88909
1.86732
1.8458
1.82506
1.80565
1.78749
1.76941
1.74994
1.72841
1.70505
1.68059
1.6567
1.6348
1.61491
1.59623
1.57764
1.55823
1.53813
1.51879
1.5029
1.49137
1.48249
1.47442
1.46583
1.45646
1.44701
1.43652
1.42294
1.40742
1.3921
1.37888
1.36761
1.35686
1.34481
1.33093
1.31759
1.30479
1.29022
1.27748
1.26779
1.26
1.25352
1.25072
1.24874
1.24268
1.23221
1.2185
1.20434
1.19356
1.18563
1.17866
1.17199
1.16495
1.15813
1.15219
1.14428
1.13812
1.14425
1.17252
1.23959
1.31641
1.38027
1.43215
1.45045
1.5002
1
1
1
1
1.00001
2.07574
2.89733
2.8299
2.76496
2.71859
2.67238
2.62623
2.5783
2.53374
2.49309
2.45563
2.4156
2.36958
2.32196
2.27612
2.23318
2.19291
2.15487
2.11864
2.08401
2.05095
2.01987
1.99127
1.96513
1.94088
1.91764
1.89462
1.87165
1.84945
1.82892
1.81016
1.79236
1.77432
1.75502
1.73378
1.71042
1.6857
1.66098
1.63736
1.61532
1.59535
1.57751
1.56068
1.54285
1.52301
1.504
1.48995
1.47999
1.47185
1.46465
1.45766
1.4495
1.43868
1.42457
1.40749
1.39042
1.37626
1.3649
1.35482
1.34414
1.33199
1.31812
1.30252
1.28757
1.2756
1.26573
1.25824
1.2534
1.24813
1.24118
1.23339
1.22299
1.20969
1.19516
1.18414
1.17615
1.16935
1.16282
1.15567
1.14872
1.14175
1.13342
1.12427
1.11407
1.11159
1.1201
1.15288
1.23003
1.32983
1.43447
1.58398
)
;

boundaryField
{
    inlet
    {
        type            fixedValue;
        value           uniform 1;
    }
    outlet
    {
        type            inletOutlet;
        inletValue      uniform 1;
        value           nonuniform List<scalar> 
32
(
1.92965
1.93215
1.92906
1.91174
1.88414
1.85583
1.828
1.80612
1.78593
1.76711
1.74859
1.73118
1.71277
1.68967
1.6716
1.65648
1.64021
1.62408
1.60883
1.59479
1.57058
1.55467
1.54131
1.52783
1.51785
1.5044
1.49399
1.48936
1.47996
1.46564
1.49822
1.58108
)
;
    }
    bottom
    {
        type            symmetryPlane;
    }
    top
    {
        type            symmetryPlane;
    }
    obstacle
    {
        type            zeroGradient;
    }
    defaultFaces
    {
        type            empty;
    }
}


// ************************************************************************* //
