/*--------------------------------*- C++ -*----------------------------------*\
  =========                 |
  \\      /  F ield         | OpenFOAM: The Open Source CFD Toolbox
   \\    /   O peration     | Website:  https://openfoam.org
    \\  /    A nd           | Version:  7
     \\/     M anipulation  |
\*---------------------------------------------------------------------------*/
FoamFile
{
    version     2.0;
    format      ascii;
    class       volVectorField;
    location    "2.5";
    object      U;
}
// * * * * * * * * * * * * * * * * * * * * * * * * * * * * * * * * * * * * * //

dimensions      [0 1 -1 0 0 0 0];

internalField   nonuniform List<vector> 
4032
(
(3 1.12403e-16 0)
(3 3.26019e-16 0)
(3 2.15414e-16 0)
(3 -1.43056e-16 0)
(3 -4.88536e-16 0)
(3 -9.86029e-16 0)
(3 -1.07403e-15 0)
(3 -9.63128e-16 0)
(3 -2.36843e-16 0)
(3 7.79995e-17 0)
(3 5.58037e-16 0)
(3 2.18628e-16 0)
(1.17414 0.015855 0)
(0.722273 0.0157365 0)
(0.667213 0.0215757 0)
(0.611654 0.0239866 0)
(0.553874 0.0257875 0)
(0.494343 0.0275219 0)
(0.432161 0.0293493 0)
(0.366512 0.0314964 0)
(0.296517 0.034149 0)
(0.22029 0.0380346 0)
(0.137084 0.0408105 0)
(0.0507292 0.0455477 0)
(3 3.39182e-17 0)
(3 1.73675e-16 0)
(3 -2.48991e-16 0)
(3 -5.90917e-16 0)
(3 -1.2265e-15 0)
(3 -1.98492e-15 0)
(3 -1.37394e-15 0)
(3 -9.26798e-16 0)
(3 -1.80251e-16 0)
(3 5.64225e-16 0)
(3 1.38128e-15 0)
(3 9.21674e-16 0)
(1.19937 0.072313 0)
(0.716542 0.0625523 0)
(0.655145 0.0674442 0)
(0.598624 0.073275 0)
(0.540002 0.077873 0)
(0.480333 0.0830231 0)
(0.418533 0.0887721 0)
(0.353911 0.09587 0)
(0.285618 0.104508 0)
(0.21218 0.117052 0)
(0.131645 0.126306 0)
(0.0490285 0.140385 0)
(3 2.7828e-17 0)
(3 -4.45598e-16 0)
(3 -5.64623e-16 0)
(3 -6.42578e-16 0)
(3 -6.28754e-16 0)
(3 -9.18371e-16 0)
(3 -1.04952e-15 0)
(3 -1.03018e-15 0)
(3 -8.27881e-16 0)
(3 -4.03798e-18 0)
(3 7.86019e-16 0)
(3 1.39404e-17 0)
(1.27677 0.126845 0)
(0.728086 0.109796 0)
(0.660359 0.11622 0)
(0.602047 0.12499 0)
(0.541459 0.132086 0)
(0.480362 0.140092 0)
(0.417276 0.148958 0)
(0.351546 0.160038 0)
(0.282191 0.173179 0)
(0.209101 0.193123 0)
(0.128487 0.208078 0)
(0.0484651 0.23047 0)
(3 -1.61854e-16 0)
(3 -5.7288e-17 0)
(3 5.20802e-17 0)
(3 2.86731e-16 0)
(3 4.41527e-16 0)
(3 2.87094e-16 0)
(3 -6.10639e-16 0)
(3 -1.17304e-15 0)
(3 -7.29527e-16 0)
(3 -4.78224e-16 0)
(3 -2.83337e-16 0)
(3 -2.84815e-16 0)
(1.40097 0.178508 0)
(0.74388 0.160065 0)
(0.667868 0.166575 0)
(0.609597 0.177635 0)
(0.548639 0.187099 0)
(0.487421 0.198485 0)
(0.423518 0.21145 0)
(0.356198 0.227852 0)
(0.284233 0.245893 0)
(0.209834 0.272767 0)
(0.127609 0.293091 0)
(0.0467111 0.320707 0)
(3 -2.18169e-16 0)
(3 2.95019e-16 0)
(3 2.0602e-16 0)
(3 3.15308e-16 0)
(3 3.29532e-16 0)
(3 1.76959e-16 0)
(3 2.04044e-16 0)
(3 3.41356e-16 0)
(3 -2.68132e-16 0)
(3 -8.30767e-16 0)
(3 -8.42739e-16 0)
(3 -6.8067e-16 0)
(1.58415 0.227163 0)
(0.766149 0.214802 0)
(0.676871 0.218077 0)
(0.620544 0.229787 0)
(0.562408 0.240796 0)
(0.505241 0.255349 0)
(0.445454 0.272698 0)
(0.382141 0.295323 0)
(0.31175 0.319024 0)
(0.237153 0.353613 0)
(0.148224 0.382879 0)
(0.0565599 0.418325 0)
(3 -5.84618e-17 0)
(3 -3.08414e-16 0)
(3 -2.35445e-16 0)
(3 -1.99621e-16 0)
(3 2.17248e-17 0)
(3 -2.01933e-16 0)
(3 3.57809e-16 0)
(3 9.16409e-16 0)
(3 3.79025e-16 0)
(3 -5.28608e-17 0)
(3 4.23985e-16 0)
(3 -2.00015e-15 0)
(1.83925 0.272982 0)
(0.798611 0.27775 0)
(0.684389 0.270909 0)
(0.626753 0.28108 0)
(0.569056 0.293151 0)
(0.514911 0.310535 0)
(0.459639 0.332183 0)
(0.401726 0.362614 0)
(0.332113 0.397242 0)
(0.254317 0.446062 0)
(0.160157 0.493452 0)
(0.0547612 0.537384 0)
(3 -1.31124e-16 0)
(3 -4.84821e-16 0)
(3 -5.76937e-16 0)
(3 -8.72335e-16 0)
(3 -8.96996e-16 0)
(3 -9.61918e-17 0)
(3 -3.92837e-16 0)
(3 -3.16685e-16 0)
(3 -2.29613e-16 0)
(3 -4.5185e-16 0)
(3 2.81995e-17 0)
(3 -4.87655e-16 0)
(2.18936 0.30974 0)
(0.849228 0.355432 0)
(0.702273 0.331967 0)
(0.650159 0.340327 0)
(0.5952 0.350045 0)
(0.542643 0.366971 0)
(0.489226 0.390293 0)
(0.435772 0.428219 0)
(0.37598 0.475403 0)
(0.311223 0.536991 0)
(0.224935 0.603214 0)
(0.0983368 0.676118 0)
(3 1.31217e-16 0)
(3 2.72139e-16 0)
(3 1.69532e-16 0)
(3 -2.02122e-18 0)
(3 5.7858e-17 0)
(3 5.49727e-16 0)
(3 2.81492e-16 0)
(3 1.51051e-16 0)
(3 1.42317e-16 0)
(3 -1.10631e-16 0)
(3 -2.14135e-18 0)
(3 1.61327e-17 0)
(2.69386 0.267433 0)
(0.975042 0.433998 0)
(0.780933 0.366876 0)
(0.730945 0.37774 0)
(0.669213 0.397455 0)
(0.609875 0.421 0)
(0.550244 0.448206 0)
(0.497589 0.490178 0)
(0.443616 0.544123 0)
(0.383209 0.630768 0)
(0.269632 0.761725 0)
(0.148885 0.934353 0)
(3 3.24998e-16 0)
(3 2.92281e-16 0)
(3 4.14203e-17 0)
(3 3.02628e-16 0)
(3 4.98181e-16 0)
(3 2.76355e-16 0)
(3 6.56079e-16 0)
(3 4.79307e-17 0)
(3 8.65948e-16 0)
(3 7.33829e-16 0)
(3 4.31277e-16 0)
(3 -9.0575e-17 0)
(3.06804 0.0393859 0)
(1.18183 0.435177 0)
(0.851784 0.404869 0)
(0.807221 0.434008 0)
(0.753833 0.454746 0)
(0.697196 0.478997 0)
(0.637358 0.506495 0)
(0.58312 0.548969 0)
(0.531187 0.614377 0)
(0.491095 0.73741 0)
(0.460071 0.92022 0)
(0.575881 1.20557 0)
(3 1.30471e-16 0)
(3 1.80395e-16 0)
(3 -3.38946e-16 0)
(3 -3.81139e-16 0)
(3 -6.78057e-17 0)
(3 3.07311e-17 0)
(3 2.14282e-16 0)
(3 -2.90963e-17 0)
(3 4.0094e-16 0)
(3 3.79154e-16 0)
(3 7.54482e-16 0)
(3 2.42516e-16 0)
(3.0075 0.000147589 0)
(1.37857 0.430182 0)
(0.852854 0.464804 0)
(0.803552 0.490277 0)
(0.763705 0.513276 0)
(0.730252 0.544638 0)
(0.694718 0.577849 0)
(0.657352 0.620198 0)
(0.629738 0.688891 0)
(0.622672 0.81183 0)
(0.682709 0.960204 0)
(0.969039 1.13327 0)
(3 1.61944e-16 0)
(3 2.58228e-16 0)
(3 1.37942e-16 0)
(3 -3.46265e-16 0)
(3 -2.30602e-16 0)
(3 -7.49053e-17 0)
(3 -9.6478e-17 0)
(3 4.25222e-16 0)
(3 5.55821e-16 0)
(3 4.63658e-16 0)
(3 1.30665e-15 0)
(3 9.56589e-16 0)
(3.00005 -2.23285e-06 0)
(1.80811 0.475064 0)
(0.883176 0.527337 0)
(0.808428 0.525262 0)
(0.784465 0.547477 0)
(0.765713 0.578997 0)
(0.753494 0.618716 0)
(0.736761 0.664183 0)
(0.736041 0.732554 0)
(0.75802 0.838374 0)
(0.874469 0.959659 0)
(1.18511 1.06657 0)
(3 -8.3291e-17 0)
(3 1.26528e-16 0)
(3 3.82125e-16 0)
(3 -2.68567e-16 0)
(3 -1.39466e-15 0)
(3 -1.3277e-15 0)
(3 -1.06467e-15 0)
(3 4.22868e-16 0)
(3 9.81347e-16 0)
(3 9.50899e-16 0)
(3 6.05382e-16 0)
(3 -5.39653e-16 0)
(3.00001 -2.39818e-06 0)
(2.54215 0.390194 0)
(1.02027 0.607839 0)
(0.86819 0.55723 0)
(0.836811 0.572729 0)
(0.816685 0.603634 0)
(0.814432 0.647485 0)
(0.814435 0.698329 0)
(0.832143 0.763674 0)
(0.8805 0.84656 0)
(1.01675 0.939204 0)
(1.27508 1.00143 0)
(3 7.59932e-17 0)
(3 1.80977e-16 0)
(3 2.33041e-16 0)
(3 4.12507e-16 0)
(3 -5.1279e-16 0)
(3 -5.0424e-16 0)
(3 -3.62139e-16 0)
(3 2.61772e-16 0)
(3 3.6127e-16 0)
(3 2.40946e-16 0)
(3 -5.10457e-16 0)
(3 -1.84128e-15 0)
(3 -4.81682e-07 0)
(3.08502 0.0568183 0)
(1.33297 0.609883 0)
(0.972919 0.593656 0)
(0.927072 0.605178 0)
(0.892274 0.630825 0)
(0.882176 0.671162 0)
(0.888485 0.720565 0)
(0.914686 0.780241 0)
(0.982289 0.849798 0)
(1.12006 0.916537 0)
(1.32932 0.95574 0)
(3 1.13808e-16 0)
(3 -4.54418e-16 0)
(3 -3.05542e-16 0)
(3 5.62312e-16 0)
(3 8.97343e-16 0)
(3 5.86106e-16 0)
(3 1.66234e-16 0)
(3 -2.93013e-17 0)
(3 -7.43593e-16 0)
(3 -1.29578e-15 0)
(3 -1.50082e-15 0)
(3 -1.19195e-15 0)
(3 -4.55541e-08 0)
(3.01042 0.00021557 0)
(1.6806 0.576985 0)
(1.0004 0.670038 0)
(0.961435 0.668418 0)
(0.939768 0.680811 0)
(0.935227 0.707201 0)
(0.949486 0.744362 0)
(0.984297 0.788195 0)
(1.05886 0.840393 0)
(1.18492 0.88578 0)
(1.35223 0.90707 0)
(3 -2.41521e-16 0)
(3 5.40209e-18 0)
(3 -5.937e-17 0)
(3 2.00506e-16 0)
(3 6.6413e-16 0)
(3 4.75185e-16 0)
(3 6.11124e-16 0)
(3 -3.60196e-16 0)
(3 -1.31329e-15 0)
(3 -1.0547e-15 0)
(3 -9.13232e-16 0)
(3 -2.52336e-16 0)
(3 -1.28904e-09 0)
(3.00007 -1.96996e-06 0)
(2.51299 0.423798 0)
(1.12559 0.706771 0)
(1.00808 0.709473 0)
(0.994914 0.712515 0)
(0.991596 0.726096 0)
(1.00666 0.757094 0)
(1.04642 0.792898 0)
(1.12214 0.833425 0)
(1.23345 0.865949 0)
(1.3721 0.879599 0)
(3 2.60331e-16 0)
(3 9.14648e-16 0)
(3 7.68479e-16 0)
(3 6.73845e-16 0)
(3 9.5542e-16 0)
(3 6.25359e-16 0)
(3 2.08604e-16 0)
(3 -5.90424e-16 0)
(3 -6.78692e-16 0)
(3 -2.37981e-16 0)
(3 -2.80684e-16 0)
(3 1.20314e-16 0)
(3 -2.73537e-12 0)
(3.00001 -3.21661e-06 0)
(3.0713 0.0513148 0)
(1.4635 0.700175 0)
(1.08491 0.735497 0)
(1.06825 0.734234 0)
(1.05566 0.751274 0)
(1.06684 0.768268 0)
(1.10286 0.790876 0)
(1.17188 0.819493 0)
(1.26624 0.841136 0)
(1.3826 0.849295 0)
(3 1.69083e-17 0)
(3 -1.38777e-16 0)
(3 2.02953e-17 0)
(3 7.61977e-17 0)
(3 1.69743e-16 0)
(3 -4.71326e-17 0)
(3 -4.74286e-16 0)
(3 -1.2893e-15 0)
(3 -9.16129e-16 0)
(3 -9.81246e-16 0)
(3 -6.95075e-16 0)
(3 -1.67566e-17 0)
(3 -2.51434e-15 0)
(3 -6.63075e-07 0)
(3.00695 0.000491033 0)
(2.07894 0.630406 0)
(1.15095 0.800885 0)
(1.10931 0.789325 0)
(1.11493 0.786303 0)
(1.12633 0.792898 0)
(1.15832 0.805008 0)
(1.2182 0.82086 0)
(1.29981 0.834082 0)
(1.39813 0.838435 0)
(3 -5.6814e-16 0)
(3 -6.28338e-16 0)
(3 -3.25157e-16 0)
(3 -2.23572e-17 0)
(3 1.85795e-16 0)
(3 4.44932e-16 0)
(3 -3.56434e-16 0)
(3 -5.44527e-16 0)
(3 -2.99787e-16 0)
(3 -4.73975e-16 0)
(3 -3.19841e-16 0)
(3 -3.67123e-16 0)
(3 8.36494e-17 0)
(3 -5.3632e-08 0)
(3.00003 1.60027e-06 0)
(3.00303 0.171527 0)
(1.42743 0.780252 0)
(1.16804 0.787226 0)
(1.19008 0.795065 0)
(1.19905 0.803352 0)
(1.2259 0.810204 0)
(1.27272 0.818146 0)
(1.33956 0.825438 0)
(1.42026 0.828018 0)
(3 3.76207e-17 0)
(3 -2.04148e-16 0)
(3 -1.35212e-16 0)
(3 6.47409e-17 0)
(3 -1.12603e-16 0)
(3 -6.83004e-17 0)
(3 8.77656e-17 0)
(3 2.71292e-16 0)
(3 6.74381e-17 0)
(3 -5.28318e-17 0)
(3 -3.12334e-16 0)
(3 -2.65044e-16 0)
(3 4.09277e-18 0)
(3 -2.37838e-10 0)
(3 -1.15322e-06 0)
(3.02351 0.00337437 0)
(1.89487 0.714867 0)
(1.20191 0.837785 0)
(1.20381 0.832592 0)
(1.23382 0.836749 0)
(1.27087 0.843089 0)
(1.31666 0.846771 0)
(1.37304 0.846745 0)
(1.43959 0.84225 0)
(3 2.24747e-16 0)
(3 -1.36263e-17 0)
(3 -1.70687e-16 0)
(3 1.93592e-17 0)
(3 -1.00335e-16 0)
(3 -3.56146e-16 0)
(3 2.40124e-16 0)
(3 4.26933e-16 0)
(3 1.07791e-16 0)
(3 -6.54599e-16 0)
(3 -1.63482e-15 0)
(3 -1.23577e-15 0)
(3 -3.71714e-16 0)
(3 -4.12905e-13 0)
(3 -2.15985e-07 0)
(3.00022 4.69447e-05 0)
(2.8968 0.28223 0)
(1.44365 0.845409 0)
(1.23807 0.819852 0)
(1.27994 0.830902 0)
(1.31614 0.842157 0)
(1.36321 0.846331 0)
(1.41323 0.84511 0)
(1.47087 0.83764 0)
(3 3.03144e-18 0)
(3 1.92327e-16 0)
(3 4.05907e-16 0)
(3 7.95336e-16 0)
(3 1.01261e-15 0)
(3 5.11343e-16 0)
(3 3.83574e-16 0)
(3 1.99162e-16 0)
(3 -3.57845e-16 0)
(3 -1.27442e-15 0)
(3 -8.85243e-16 0)
(3 -1.13659e-15 0)
(3 2.56236e-16 0)
(3 3.44474e-16 0)
(3 -6.24829e-09 0)
(3 -3.32491e-07 0)
(3.03375 0.00992977 0)
(1.92738 0.74547 0)
(1.28757 0.867824 0)
(1.29587 0.864443 0)
(1.33603 0.866108 0)
(1.38207 0.86781 0)
(1.43258 0.865702 0)
(1.48905 0.856965 0)
(3 -1.90116e-16 0)
(3 -5.99867e-16 0)
(3 -7.41575e-16 0)
(3 -1.12675e-16 0)
(3 1.92917e-16 0)
(3 7.61109e-16 0)
(3 7.30478e-16 0)
(3 1.3497e-16 0)
(3 8.97797e-18 0)
(3 2.29003e-16 0)
(3 7.31326e-16 0)
(3 3.64596e-16 0)
(3 1.57183e-16 0)
(3 9.59115e-17 0)
(3 -2.22344e-11 0)
(3 -8.26012e-08 0)
(3.00052 0.00023529 0)
(2.87717 0.292867 0)
(1.54686 0.890061 0)
(1.3261 0.857968 0)
(1.37024 0.860033 0)
(1.40831 0.862939 0)
(1.45656 0.861781 0)
(1.5112 0.85586 0)
(3 1.26207e-18 0)
(3 -2.98846e-16 0)
(3 -6.85535e-16 0)
(3 -9.95813e-16 0)
(3 -1.11045e-15 0)
(3 -7.19949e-16 0)
(3 1.71229e-16 0)
(3 8.38304e-17 0)
(3 6.52554e-16 0)
(3 1.09815e-15 0)
(3 1.43814e-15 0)
(3 1.34367e-15 0)
(3 5.81333e-16 0)
(3 -6.15355e-17 0)
(3 -5.71733e-15 0)
(3 -7.12105e-09 0)
(3 3.22645e-07 0)
(3.02528 0.0131897 0)
(2.14354 0.736419 0)
(1.39756 0.902198 0)
(1.39152 0.895048 0)
(1.42735 0.886529 0)
(1.46857 0.880398 0)
(1.51506 0.874524 0)
(3 3.40371e-16 0)
(3 7.28819e-16 0)
(3 7.1153e-16 0)
(3 2.18479e-16 0)
(3 -2.11663e-16 0)
(3 -7.5125e-16 0)
(3 -5.86058e-16 0)
(3 2.86787e-16 0)
(3 6.56448e-16 0)
(3 1.02428e-15 0)
(3 2.04763e-15 0)
(3 2.2437e-15 0)
(3 2.01985e-15 0)
(3 1.3422e-15 0)
(3 7.17782e-16 0)
(3 -2.22429e-10 0)
(3 -1.78043e-10 0)
(3.00034 0.000360302 0)
(2.9506 0.203799 0)
(1.74556 0.881351 0)
(1.42469 0.903418 0)
(1.46614 0.894053 0)
(1.4967 0.884494 0)
(1.53343 0.875208 0)
(3 -6.34488e-17 0)
(3 9.33094e-17 0)
(3 5.17988e-16 0)
(3 4.62473e-16 0)
(3 4.45975e-16 0)
(3 4.12717e-16 0)
(3 -8.63538e-17 0)
(3 -3.44008e-17 0)
(3 8.95037e-16 0)
(3 1.1282e-15 0)
(3 9.97292e-16 0)
(3 1.05029e-15 0)
(3 1.21968e-15 0)
(3 1.09018e-15 0)
(3 5.77113e-16 0)
(3 -1.41406e-12 0)
(3 -5.145e-11 0)
(3 6.46815e-07 0)
(3.00926 0.0106022 0)
(2.52112 0.600331 0)
(1.54666 0.949929 0)
(1.48826 0.926373 0)
(1.51898 0.911497 0)
(1.54996 0.897046 0)
(3 6.75541e-18 0)
(3 7.69934e-18 0)
(3 3.47095e-16 0)
(3 7.50266e-17 0)
(3 -3.49583e-16 0)
(3 -4.58836e-16 0)
(3 -1.08806e-15 0)
(3 -1.43777e-15 0)
(3 -9.14752e-16 0)
(3 -1.05982e-16 0)
(3 -2.76802e-16 0)
(3 -1.89864e-16 0)
(3 -2.94537e-16 0)
(3 -2.28586e-16 0)
(3 2.93186e-16 0)
(3 -2.75521e-15 0)
(3 -6.26052e-12 0)
(3 1.41542e-10 0)
(3.00004 0.0001994 0)
(3.019 0.0821396 0)
(2.04204 0.809712 0)
(1.55189 0.93463 0)
(1.55791 0.92461 0)
(1.58625 0.905226 0)
(3 -4.39369e-17 0)
(3 -1.21054e-16 0)
(3 2.58877e-17 0)
(3 8.88425e-17 0)
(3 -1.2347e-16 0)
(3 1.77086e-16 0)
(3 -3.39895e-16 0)
(3 -1.19706e-15 0)
(3 -1.48519e-15 0)
(3 -1.27223e-15 0)
(3 -2.10518e-16 0)
(3 -2.02758e-16 0)
(3 -1.01109e-16 0)
(3 3.32535e-16 0)
(3 2.17574e-16 0)
(3 4.3508e-16 0)
(3 -2.76057e-13 0)
(3 -4.46515e-13 0)
(3 2.76358e-07 0)
(3.00178 0.00402401 0)
(2.81715 0.324607 0)
(1.81754 0.90138 0)
(1.58406 0.948973 0)
(1.61159 0.933879 0)
(3 -2.08626e-16 0)
(3 -6.85401e-16 0)
(3 -1.3093e-15 0)
(3 -1.18446e-15 0)
(3 -4.70752e-16 0)
(3 -7.77098e-17 0)
(3 5.59452e-16 0)
(3 2.38444e-16 0)
(3 8.21236e-18 0)
(3 3.91218e-17 0)
(3 -6.20177e-17 0)
(3 -7.09726e-16 0)
(3 -3.21229e-17 0)
(3 6.60384e-16 0)
(3 5.96442e-16 0)
(3 1.1699e-15 0)
(3 -2.51709e-15 0)
(3 -1.73949e-13 0)
(3 1.05111e-10 0)
(3 2.7691e-05 0)
(3.00435 0.0245337 0)
(2.47859 0.592761 0)
(1.72003 0.960822 0)
(1.62009 0.951151 0)
(3 3.67513e-17 0)
(3 -6.02872e-18 0)
(3 -3.9031e-16 0)
(3 -4.06426e-16 0)
(3 2.01045e-16 0)
(3 -5.4445e-16 0)
(3 -8.83957e-17 0)
(3 6.93268e-17 0)
(3 9.88113e-16 0)
(3 1.22064e-15 0)
(3 6.84703e-16 0)
(3 4.74333e-16 0)
(3 9.15508e-17 0)
(3 -1.94405e-16 0)
(3 1.04252e-16 0)
(3 3.16681e-16 0)
(3 2.05646e-16 0)
(3 -3.1014e-14 0)
(3 -2.09361e-14 0)
(3 2.11609e-08 0)
(2.99999 0.000680812 0)
(2.97798 0.0927254 0)
(2.19991 0.771172 0)
(1.68414 0.959957 0)
(3 3.1383e-16 0)
(3 6.05321e-16 0)
(3 6.58571e-16 0)
(3 7.64427e-16 0)
(3 8.22786e-17 0)
(3 -2.15839e-16 0)
(3 -5.74761e-16 0)
(3 2.4785e-17 0)
(3 6.00527e-16 0)
(3 1.35795e-16 0)
(3 2.73869e-16 0)
(3 9.35602e-16 0)
(3 7.169e-16 0)
(3 8.73343e-17 0)
(3 -6.08141e-16 0)
(3 -1.17874e-15 0)
(3 4.12223e-16 0)
(3 1.40996e-17 0)
(3 -7.35839e-15 0)
(3 8.13504e-12 0)
(3 1.57521e-06 0)
(3.00005 0.00478356 0)
(2.86466 0.254414 0)
(2.00608 0.857977 0)
(3 -3.92099e-16 0)
(3 -5.10373e-17 0)
(3 3.43997e-16 0)
(3 -1.11506e-16 0)
(3 -4.03709e-16 0)
(3 -7.54758e-16 0)
(3 -3.11836e-16 0)
(3 -6.17158e-16 0)
(3 -6.15529e-16 0)
(3 -3.38361e-16 0)
(3 -3.93989e-16 0)
(3 -2.21715e-16 0)
(3 -4.54672e-16 0)
(3 1.61091e-16 0)
(3 4.27924e-16 0)
(3 5.12944e-16 0)
(3 1.00906e-15 0)
(3 1.95384e-15 0)
(3 -3.99189e-16 0)
(3 -2.73536e-16 0)
(3 1.14479e-09 0)
(2.99999 3.33355e-05 0)
(2.99827 0.0188499 0)
(2.6624 0.440978 0)
(3 -2.52147e-16 0)
(3 -6.48233e-16 0)
(3 -4.84475e-16 0)
(3 -1.49998e-16 0)
(3 7.15589e-17 0)
(3 7.77733e-17 0)
(3 1.01991e-17 0)
(3 -5.5532e-16 0)
(3 -7.75667e-16 0)
(3 6.73893e-17 0)
(3 -6.45522e-16 0)
(3 -5.10593e-16 0)
(3 -8.42699e-16 0)
(3 1.94659e-16 0)
(3 1.15505e-15 0)
(3 1.33306e-15 0)
(3 1.85156e-15 0)
(3 1.67933e-15 0)
(3 1.35859e-15 0)
(3 1.74705e-16 0)
(3 2.11278e-13 0)
(3 3.58006e-08 0)
(2.99992 0.000368062 0)
(2.98772 0.0476158 0)
(3 3.61424e-16 0)
(3 3.06507e-16 0)
(3 -1.06564e-16 0)
(3 6.27897e-16 0)
(3 7.23742e-16 0)
(3 1.16944e-15 0)
(3 1.15094e-15 0)
(3 1.03563e-15 0)
(3 9.7473e-17 0)
(3 -6.19435e-16 0)
(3 -8.49512e-16 0)
(3 -1.16882e-15 0)
(3 -5.63768e-16 0)
(3 -4.56894e-16 0)
(3 -3.38377e-16 0)
(3 3.93876e-16 0)
(3 1.39098e-15 0)
(3 1.15586e-15 0)
(3 2.48744e-16 0)
(3 -3.12538e-16 0)
(3 -8.0312e-16 0)
(3 1.65018e-11 0)
(3 7.06165e-07 0)
(2.99972 0.00181274 0)
(3 1.62828e-16 0)
(3 8.09761e-16 0)
(3 7.92421e-16 0)
(3 8.50029e-16 0)
(3 9.77916e-16 0)
(3 7.85452e-16 0)
(3 9.54811e-16 0)
(3 1.61307e-15 0)
(3 9.60368e-16 0)
(3 2.15024e-16 0)
(3 -2.1611e-16 0)
(3 -3.96011e-16 0)
(3 -2.49893e-16 0)
(3 -4.95688e-16 0)
(3 -9.46849e-16 0)
(3 -7.61448e-16 0)
(3 -4.18426e-16 0)
(3 -2.86363e-16 0)
(3 -4.24573e-16 0)
(3 -1.08381e-15 0)
(3 -4.56807e-16 0)
(3 8.07062e-16 0)
(3 6.20499e-10 0)
(3 6.51376e-06 0)
(3 2.6511e-18 0)
(3 1.47101e-16 0)
(3 3.89821e-16 0)
(3 -1.72396e-16 0)
(3 -3.30897e-16 0)
(3 -4.64883e-16 0)
(3 -6.20592e-16 0)
(3 -5.89926e-16 0)
(3 -2.64249e-16 0)
(3 6.14381e-17 0)
(3 -1.13938e-16 0)
(3 7.3971e-17 0)
(3 -1.0931e-15 0)
(3 -1.2753e-15 0)
(3 -1.23618e-15 0)
(3 -1.08958e-15 0)
(3 -1.68097e-15 0)
(3 -1.48069e-15 0)
(3 -9.42435e-16 0)
(3 -7.02505e-16 0)
(3 -7.08265e-16 0)
(3 -5.78006e-16 0)
(3 7.31733e-14 0)
(3 7.85681e-09 0)
(3 -1.49122e-17 0)
(3 -2.04211e-16 0)
(3 -2.43406e-16 0)
(3 -4.71882e-16 0)
(3 -7.27279e-16 0)
(3 -1.06481e-15 0)
(3 -1.54315e-15 0)
(3 -1.54071e-15 0)
(3 -1.13247e-15 0)
(3 -9.8191e-16 0)
(3 -4.48037e-16 0)
(3 -4.48997e-16 0)
(3 -1.20473e-15 0)
(3 -1.5747e-15 0)
(3 -1.13093e-15 0)
(3 -7.9905e-16 0)
(3 -6.97622e-16 0)
(3 -1.00284e-15 0)
(3 -9.85336e-16 0)
(3 -6.91097e-16 0)
(3 -3.89327e-16 0)
(3 -6.08468e-17 0)
(3 -1.25718e-16 0)
(3 1.87345e-12 0)
(3 -5.45555e-17 0)
(3 -9.92489e-17 0)
(3 -1.10949e-16 0)
(3 3.83674e-16 0)
(3 -2.34247e-16 0)
(3 -1.52787e-16 0)
(3 -8.19735e-17 0)
(3 -2.66394e-16 0)
(3 -1.04197e-16 0)
(3 -3.50083e-16 0)
(3 -3.58852e-17 0)
(3 -7.70594e-17 0)
(3 8.42211e-18 0)
(3 1.40922e-16 0)
(3 4.63577e-16 0)
(3 4.41567e-16 0)
(3 3.5919e-16 0)
(3 3.37747e-17 0)
(3 -3.15169e-17 0)
(3 -1.28588e-16 0)
(3 9.96234e-17 0)
(3 -1.35766e-16 0)
(3 -4.22669e-17 0)
(3 -2.72534e-17 0)
(3 -3.34674e-16 0)
(3 8.52843e-17 0)
(3 1.0554e-16 0)
(3 -9.15383e-17 0)
(3 -1.52133e-17 0)
(3 2.6086e-16 0)
(3 3.5766e-16 0)
(3 -6.23427e-17 0)
(3 -4.58034e-16 0)
(3 -8.26952e-16 0)
(3 -8.06656e-16 0)
(3 -4.40332e-16 0)
(3 1.98951e-16 0)
(3 2.69129e-16 0)
(3 1.90946e-16 0)
(3 -8.39775e-17 0)
(3 1.4248e-17 0)
(3 -1.09115e-16 0)
(3 -5.42499e-16 0)
(3 -6.35274e-16 0)
(3 -7.41313e-16 0)
(3 -5.57613e-16 0)
(3 -1.85542e-16 0)
(3 -3.57005e-16 0)
(3 -3.05579e-17 0)
(3 -2.57928e-17 0)
(3 -2.78879e-17 0)
(3 2.19585e-16 0)
(3 1.74213e-16 0)
(3 2.16504e-16 0)
(3 3.62368e-16 0)
(3 2.67665e-16 0)
(3 -1.4537e-15 0)
(3 -1.44053e-15 0)
(3 -1.13534e-15 0)
(3 -3.04546e-16 0)
(3 3.98472e-16 0)
(3 2.09973e-16 0)
(3 -1.06967e-15 0)
(3 -1.82412e-15 0)
(3 -9.29878e-16 0)
(3 -5.52036e-16 0)
(3 -6.05471e-16 0)
(3 -7.65392e-16 0)
(3 -4.53183e-16 0)
(3 -1.35006e-16 0)
(3 3.3335e-17 0)
(3 3.73044e-16 0)
(3 5.98365e-17 0)
(3 1.24516e-16 0)
(3 6.04067e-17 0)
(3 3.07762e-16 0)
(3 4.64032e-17 0)
(3 3.06033e-16 0)
(3 2.94429e-16 0)
(3 1.32135e-16 0)
(3 -5.8475e-16 0)
(3 -4.97128e-16 0)
(3 -1.41353e-16 0)
(3 1.12696e-16 0)
(3 3.08866e-16 0)
(3 9.74808e-17 0)
(3 -5.89571e-16 0)
(3 -1.04436e-15 0)
(3 -9.89752e-16 0)
(3 -4.88707e-16 0)
(3 -3.17693e-16 0)
(3 -4.85467e-16 0)
(3 -1.43274e-16 0)
(3 -1.096e-16 0)
(3 2.4278e-16 0)
(3 4.59032e-16 0)
(1.54877 1.23102 0)
(2.04552 1.48145 0)
(2.13121 1.66779 0)
(2.20096 0.692821 0)
(2.53915 0.293109 0)
(2.68954 0.0500441 0)
(2.66545 -0.187095 0)
(2.6068 -0.263633 0)
(2.479 -0.295757 0)
(2.43141 -0.358953 0)
(2.43148 -0.372357 0)
(2.42308 -0.259951 0)
(2.41263 -0.146039 0)
(2.40757 -0.125183 0)
(2.42392 -0.0903442 0)
(2.41974 -0.0679581 0)
(2.3993 -0.0573521 0)
(2.38207 -0.0499272 0)
(2.37691 -0.0276949 0)
(2.38806 -0.00995853 0)
(2.40473 -0.00520004 0)
(2.41319 -0.00988909 0)
(2.40313 -0.01582 0)
(2.39629 -0.0184765 0)
(2.38352 -0.0142687 0)
(2.37559 -0.0043016 0)
(2.3775 0.00106085 0)
(2.39273 0.00348592 0)
(2.41509 -0.00171141 0)
(2.41772 -0.00882357 0)
(2.41479 -0.0111629 0)
(2.4039 -0.0108792 0)
(2.39169 -0.00426072 0)
(2.39276 0.00230909 0)
(2.39751 0.00602628 0)
(2.39242 -0.00674243 0)
(2.23645 -0.116513 0)
(1.35854 -0.160977 0)
(1.07051 -0.121355 0)
(1.13895 -0.0965652 0)
(1.211 -0.0732644 0)
(1.26768 -0.0428485 0)
(1.35185 -0.0275581 0)
(1.40897 -0.0238413 0)
(1.44002 -0.0194392 0)
(1.46598 -0.0112467 0)
(1.49037 -0.00681691 0)
(1.52339 -0.00464204 0)
(1.56257 -0.00470032 0)
(1.59058 -0.00554389 0)
(1.61553 -0.00554886 0)
(1.64065 -0.00544599 0)
(1.66733 -0.00474042 0)
(1.69636 -0.00233956 0)
(1.72154 -0.000335579 0)
(1.74337 0.00188089 0)
(1.75992 0.00412934 0)
(1.7771 0.00499031 0)
(1.79777 0.00502067 0)
(1.82109 0.00452698 0)
(1.85015 0.0026722 0)
(1.87639 -4.54947e-05 0)
(1.9001 -0.000221323 0)
(1.92197 0.000897141 0)
(1.93726 0.00348508 0)
(1.94556 0.00686208 0)
(1.95528 0.00902589 0)
(1.97217 0.00935963 0)
(1.99206 0.00926804 0)
(2.01358 0.00868441 0)
(2.03802 0.00709007 0)
(2.06016 0.00542827 0)
(2.08051 0.00502978 0)
(2.0968 0.00538228 0)
(2.10071 0.00660484 0)
(2.09866 0.00827509 0)
(2.11033 0.00857445 0)
(2.12921 0.0084656 0)
(2.14886 0.00828639 0)
(2.17033 0.00765124 0)
(2.19458 0.00638394 0)
(2.21576 0.00543423 0)
(2.23542 0.00521535 0)
(2.24957 0.00507485 0)
(2.24559 0.0066481 0)
(2.23646 0.00917782 0)
(2.24857 0.00998371 0)
(2.26737 0.0103632 0)
(2.28642 0.0107607 0)
(2.30832 0.0112011 0)
(2.33381 0.00978125 0)
(2.35084 0.0075221 0)
(2.36747 0.00673835 0)
(2.3792 0.0059456 0)
(2.36981 0.00748959 0)
(2.36724 0.0108819 0)
(1.78044 1.05353 0)
(2.31178 0.759897 0)
(2.50617 0.591033 0)
(2.62402 0.153826 0)
(2.7386 -0.344827 0)
(2.68255 -0.461651 0)
(2.72062 -0.530001 0)
(2.73793 -0.606124 0)
(2.74495 -0.591706 0)
(2.70995 -0.538103 0)
(2.63295 -0.456051 0)
(2.52033 -0.30397 0)
(2.46639 -0.174583 0)
(2.45867 -0.130553 0)
(2.46436 -0.0984988 0)
(2.46965 -0.0526342 0)
(2.46318 -0.0405836 0)
(2.46679 -0.0352014 0)
(2.44562 -0.00650951 0)
(2.43187 0.018925 0)
(2.42464 0.0250244 0)
(2.42082 0.016581 0)
(2.42266 -0.0128503 0)
(2.42991 -0.0431703 0)
(2.42792 -0.0479891 0)
(2.42248 -0.0304285 0)
(2.42409 0.00322684 0)
(2.4285 0.0234185 0)
(2.42802 0.0223968 0)
(2.43255 0.00525143 0)
(2.43664 -0.0183581 0)
(2.43598 -0.0256176 0)
(2.43327 -0.020146 0)
(2.43001 0.00679911 0)
(2.41835 -0.00551302 0)
(2.35494 -0.118663 0)
(1.98895 -0.53138 0)
(1.75642 -0.441465 0)
(1.32082 -0.141854 0)
(1.27336 -0.0319411 0)
(1.29815 -0.0197339 0)
(1.32392 0.00150272 0)
(1.37781 0.00366695 0)
(1.42639 -0.0114595 0)
(1.46574 -0.0232385 0)
(1.49458 -0.019556 0)
(1.51934 -0.00589196 0)
(1.54831 0.0103107 0)
(1.57713 0.0123727 0)
(1.60293 0.00638806 0)
(1.62782 -0.000101664 0)
(1.65417 -0.00393992 0)
(1.68236 -0.00356268 0)
(1.71031 -0.000490111 0)
(1.735 0.00208395 0)
(1.7563 0.00696131 0)
(1.77283 0.012399 0)
(1.78863 0.0170159 0)
(1.80817 0.0195548 0)
(1.82934 0.0202018 0)
(1.85335 0.0166423 0)
(1.87881 0.0097192 0)
(1.90211 0.00377127 0)
(1.92356 -0.00059091 0)
(1.94247 -0.00291369 0)
(1.95799 0.00169302 0)
(1.97086 0.0128015 0)
(1.98293 0.0235361 0)
(1.99879 0.0283361 0)
(2.01826 0.029276 0)
(2.03897 0.0276252 0)
(2.06058 0.0221209 0)
(2.08073 0.0152477 0)
(2.0982 0.00763325 0)
(2.10909 0.00401826 0)
(2.11262 0.0112633 0)
(2.11897 0.0207341 0)
(2.13432 0.0244735 0)
(2.15332 0.0254662 0)
(2.17286 0.0259865 0)
(2.19397 0.0239732 0)
(2.21467 0.0188315 0)
(2.23374 0.0124809 0)
(2.24937 0.00450446 0)
(2.2556 0.00148515 0)
(2.25305 0.0127977 0)
(2.25626 0.0263945 0)
(2.27066 0.0318413 0)
(2.28771 0.0334961 0)
(2.30577 0.0347503 0)
(2.3275 0.0316976 0)
(2.34847 0.02514 0)
(2.36534 0.0177182 0)
(2.37973 0.00840779 0)
(2.3824 0.00366704 0)
(2.3817 0.0196201 0)
(1.6708 1.04007 0)
(2.02483 0.913404 0)
(2.35956 0.629638 0)
(2.56273 0.303721 0)
(2.6233 0.122918 0)
(2.62447 0.0561611 0)
(2.65943 -0.0961508 0)
(2.72581 -0.258893 0)
(2.77625 -0.337716 0)
(2.80752 -0.42601 0)
(2.80612 -0.452845 0)
(2.7475 -0.450599 0)
(2.65391 -0.403105 0)
(2.63989 -0.351658 0)
(2.63774 -0.285892 0)
(2.61998 -0.195251 0)
(2.60904 -0.150274 0)
(2.59577 -0.140302 0)
(2.56033 -0.0868253 0)
(2.51988 -0.031015 0)
(2.49517 -0.00580214 0)
(2.48195 0.00276923 0)
(2.47856 0.0052658 0)
(2.47935 0.000544025 0)
(2.49559 -0.0197863 0)
(2.50336 -0.0259144 0)
(2.49917 -0.0193491 0)
(2.4916 -0.00971564 0)
(2.47833 -0.00769988 0)
(2.47634 -0.0165236 0)
(2.47859 -0.0204972 0)
(2.48471 -0.022493 0)
(2.48783 -0.0145496 0)
(2.4693 -0.0426269 0)
(2.39627 -0.162011 0)
(2.14565 -0.413661 0)
(1.90108 -0.611471 0)
(1.91864 -0.676212 0)
(1.75766 -0.453805 0)
(1.5202 -0.176538 0)
(1.44119 -0.0671709 0)
(1.43192 -0.0103753 0)
(1.4577 -0.0234843 0)
(1.49435 -0.0587897 0)
(1.53205 -0.0590774 0)
(1.55873 -0.0499549 0)
(1.5839 -0.0310429 0)
(1.60573 -0.011209 0)
(1.62275 0.000860646 0)
(1.64219 -1.8669e-05 0)
(1.66403 -0.00535921 0)
(1.68978 -0.0110917 0)
(1.71883 -0.0121143 0)
(1.74523 -0.0105978 0)
(1.76867 -0.00727913 0)
(1.78688 -0.0011967 0)
(1.80095 0.00374526 0)
(1.81684 0.00837809 0)
(1.83628 0.0139667 0)
(1.85582 0.0196514 0)
(1.87413 0.023823 0)
(1.89226 0.0242124 0)
(1.91047 0.0210024 0)
(1.93074 0.0170071 0)
(1.9528 0.0142879 0)
(1.97408 0.0134502 0)
(1.99355 0.0166089 0)
(2.00886 0.0257774 0)
(2.02039 0.0356781 0)
(2.0331 0.0398696 0)
(2.04929 0.0396139 0)
(2.06647 0.03749 0)
(2.08278 0.0326631 0)
(2.0975 0.0257449 0)
(2.11247 0.020338 0)
(2.12711 0.0202024 0)
(2.13879 0.0276943 0)
(2.14892 0.0368688 0)
(2.16404 0.0402817 0)
(2.1826 0.0401477 0)
(2.20147 0.0386248 0)
(2.21898 0.0347532 0)
(2.23433 0.0275807 0)
(2.24647 0.0193869 0)
(2.25772 0.0141685 0)
(2.26956 0.0176026 0)
(2.27942 0.0318743 0)
(2.28548 0.0487974 0)
(2.29586 0.0556176 0)
(2.31341 0.0555773 0)
(2.33053 0.0529631 0)
(2.34722 0.0455742 0)
(2.36145 0.0355717 0)
(2.37311 0.0248412 0)
(2.38193 0.0189073 0)
(2.39678 0.0280618 0)
(1.59653 0.98336 0)
(1.90754 0.858836 0)
(2.14093 0.721759 0)
(2.31314 0.559441 0)
(2.47241 0.320894 0)
(2.56868 0.121057 0)
(2.61461 0.0399546 0)
(2.67172 -0.122337 0)
(2.73077 -0.281625 0)
(2.7443 -0.372 0)
(2.77853 -0.453859 0)
(2.8055 -0.510986 0)
(2.79973 -0.482279 0)
(2.76424 -0.438434 0)
(2.73777 -0.406617 0)
(2.70935 -0.351785 0)
(2.69939 -0.320642 0)
(2.69146 -0.301441 0)
(2.6706 -0.240663 0)
(2.63613 -0.163699 0)
(2.60631 -0.114894 0)
(2.57291 -0.0799352 0)
(2.55224 -0.0484954 0)
(2.53778 -0.0368405 0)
(2.53602 -0.028879 0)
(2.54862 -0.00999982 0)
(2.55308 0.0064519 0)
(2.55103 0.0101633 0)
(2.5379 -0.000869059 0)
(2.51858 -0.00687416 0)
(2.52409 -0.00123261 0)
(2.52793 0.00625673 0)
(2.52442 -0.011347 0)
(2.40603 -0.173906 0)
(2.22703 -0.411892 0)
(1.98024 -0.613562 0)
(1.93824 -0.657619 0)
(1.97192 -0.685399 0)
(1.96042 -0.650939 0)
(1.85476 -0.484677 0)
(1.682 -0.231329 0)
(1.57009 -0.0583982 0)
(1.54026 -0.0302092 0)
(1.56625 -0.0142378 0)
(1.60091 -0.0121143 0)
(1.6277 -0.0149882 0)
(1.65578 -0.0121414 0)
(1.67436 -0.0103181 0)
(1.68576 -0.000345498 0)
(1.69562 0.00653339 0)
(1.71427 0.00586712 0)
(1.7371 0.00419736 0)
(1.76417 0.00173346 0)
(1.78913 0.00170969 0)
(1.81196 0.00451499 0)
(1.82986 0.00959026 0)
(1.84336 0.0143426 0)
(1.85771 0.0177304 0)
(1.87464 0.0189373 0)
(1.89167 0.0187945 0)
(1.90689 0.018478 0)
(1.92071 0.0184784 0)
(1.93656 0.019903 0)
(1.95626 0.0232094 0)
(1.97739 0.0275967 0)
(1.9989 0.0324803 0)
(2.01921 0.0361053 0)
(2.03745 0.0395123 0)
(2.04957 0.0446487 0)
(2.05541 0.0474419 0)
(2.06493 0.0441385 0)
(2.07892 0.0389876 0)
(2.09396 0.0350618 0)
(2.11021 0.0341542 0)
(2.12837 0.0358561 0)
(2.14677 0.0382129 0)
(2.163 0.0427053 0)
(2.17321 0.0504067 0)
(2.1809 0.0553619 0)
(2.19451 0.0535287 0)
(2.21079 0.049183 0)
(2.22618 0.0434665 0)
(2.23857 0.0362506 0)
(2.25166 0.0316372 0)
(2.26896 0.0324012 0)
(2.28684 0.0349607 0)
(2.30315 0.0407382 0)
(2.31331 0.052825 0)
(2.31658 0.0670799 0)
(2.32318 0.0719511 0)
(2.33563 0.0688911 0)
(2.34814 0.0634757 0)
(2.36013 0.0558528 0)
(2.3719 0.0476769 0)
(2.38515 0.0444149 0)
(2.41055 0.0458371 0)
(1.56399 0.93941 0)
(1.80515 0.852725 0)
(2.00093 0.750624 0)
(2.16596 0.634303 0)
(2.3335 0.447125 0)
(2.44116 0.278278 0)
(2.51501 0.187086 0)
(2.54838 0.121297 0)
(2.59702 -0.00773443 0)
(2.67058 -0.150058 0)
(2.69409 -0.221358 0)
(2.72578 -0.296362 0)
(2.75758 -0.325964 0)
(2.7671 -0.341178 0)
(2.73106 -0.360157 0)
(2.71681 -0.372353 0)
(2.71848 -0.388737 0)
(2.72516 -0.407947 0)
(2.72242 -0.376688 0)
(2.7127 -0.316556 0)
(2.69396 -0.257567 0)
(2.66824 -0.214162 0)
(2.62372 -0.153773 0)
(2.59202 -0.0987514 0)
(2.58075 -0.064159 0)
(2.58691 -0.037271 0)
(2.58821 -0.0317368 0)
(2.58312 -0.02677 0)
(2.57217 -0.0184645 0)
(2.55689 -0.00768354 0)
(2.55529 0.000181543 0)
(2.54836 -0.0101504 0)
(2.46961 -0.113998 0)
(2.18723 -0.418265 0)
(1.97108 -0.651236 0)
(1.96097 -0.631053 0)
(1.99216 -0.637056 0)
(2.00561 -0.643267 0)
(2.01767 -0.658065 0)
(2.01636 -0.637884 0)
(1.94845 -0.533464 0)
(1.80063 -0.308272 0)
(1.6783 -0.129996 0)
(1.6395 -0.0461116 0)
(1.64018 -0.00846101 0)
(1.66213 0.00332313 0)
(1.69856 -0.00378237 0)
(1.7219 -0.0118726 0)
(1.73594 -0.0123836 0)
(1.74522 9.63535e-05 0)
(1.75968 0.00926158 0)
(1.78074 0.00976333 0)
(1.8031 0.00662156 0)
(1.82437 0.00467364 0)
(1.84623 0.00638927 0)
(1.86648 0.0131814 0)
(1.88443 0.0195717 0)
(1.90058 0.023708 0)
(1.91484 0.0265987 0)
(1.92751 0.0281853 0)
(1.93903 0.0289493 0)
(1.951 0.0303272 0)
(1.96668 0.0334949 0)
(1.98554 0.037614 0)
(2.00567 0.0425842 0)
(2.02618 0.0477567 0)
(2.04586 0.0515129 0)
(2.06433 0.0544502 0)
(2.07811 0.0577898 0)
(2.08132 0.0602679 0)
(2.08325 0.0567481 0)
(2.09558 0.0504051 0)
(2.11252 0.0470108 0)
(2.13106 0.0468491 0)
(2.15074 0.0486269 0)
(2.17065 0.0523105 0)
(2.1891 0.0575346 0)
(2.20134 0.0651943 0)
(2.20312 0.0723942 0)
(2.20595 0.0704184 0)
(2.21752 0.061541 0)
(2.23168 0.0516585 0)
(2.2476 0.0449356 0)
(2.26472 0.0442551 0)
(2.28451 0.0476381 0)
(2.30388 0.0533874 0)
(2.32223 0.0587229 0)
(2.33741 0.0665809 0)
(2.34205 0.0787679 0)
(2.33691 0.086926 0)
(2.33984 0.0826256 0)
(2.35084 0.0739705 0)
(2.36446 0.0670155 0)
(2.38031 0.063937 0)
(2.39469 0.0653196 0)
(2.42214 0.0685454 0)
(1.53914 0.89386 0)