/*--------------------------------*- C++ -*----------------------------------*\
  =========                 |
  \\      /  F ield         | OpenFOAM: The Open Source CFD Toolbox
   \\    /   O peration     | Website:  https://openfoam.org
    \\  /    A nd           | Version:  7
     \\/     M anipulation  |
\*---------------------------------------------------------------------------*/
FoamFile
{
    version     2.0;
    format      ascii;
    class       volScalarField;
    location    "45";
    object      p;
}
// * * * * * * * * * * * * * * * * * * * * * * * * * * * * * * * * * * * * * //

dimensions      [0 2 -2 0 0 0 0];

internalField   nonuniform List<scalar> 
31800
(
-0.259241
-0.260783
-0.26166
-0.262372
-0.262989
-0.263527
-0.264021
-0.264494
-0.264956
-0.265412
-0.265862
-0.2663
-0.266719
-0.267107
-0.267454
-0.267747
-0.267972
-0.268118
-0.26817
-0.26812
-0.267961
-0.267695
-0.267334
-0.266885
-0.266403
-0.25935
-0.260881
-0.261751
-0.262458
-0.26307
-0.263605
-0.264097
-0.264566
-0.265026
-0.26548
-0.265928
-0.266365
-0.266782
-0.267169
-0.267515
-0.267807
-0.268032
-0.268177
-0.268228
-0.268175
-0.268011
-0.267739
-0.267369
-0.266905
-0.266404
-0.259567
-0.261074
-0.261932
-0.26263
-0.263233
-0.263761
-0.264246
-0.26471
-0.265165
-0.265615
-0.26606
-0.266493
-0.266907
-0.267293
-0.267637
-0.267928
-0.268151
-0.268294
-0.268342
-0.268284
-0.268111
-0.267825
-0.267438
-0.266946
-0.266406
-0.25989
-0.261362
-0.262202
-0.262884
-0.263475
-0.263992
-0.264467
-0.264923
-0.265371
-0.265814
-0.266253
-0.266682
-0.267092
-0.267474
-0.267816
-0.268104
-0.268326
-0.268466
-0.268509
-0.268444
-0.268259
-0.267953
-0.267541
-0.267006
-0.266402
-0.260314
-0.261742
-0.262556
-0.263219
-0.263793
-0.264295
-0.264758
-0.265203
-0.26564
-0.266075
-0.266506
-0.266927
-0.267332
-0.26771
-0.268048
-0.268333
-0.268552
-0.268688
-0.268726
-0.268651
-0.26845
-0.268119
-0.267673
-0.267084
-0.266385
-0.260835
-0.262208
-0.262992
-0.263631
-0.264184
-0.264668
-0.265114
-0.265544
-0.265968
-0.266391
-0.266812
-0.267225
-0.267622
-0.267993
-0.268326
-0.268607
-0.268822
-0.268954
-0.268986
-0.2689
-0.26868
-0.268317
-0.26783
-0.267177
-0.266341
-0.261447
-0.262756
-0.263506
-0.264115
-0.264643
-0.265104
-0.265531
-0.265942
-0.26635
-0.266759
-0.267166
-0.267568
-0.267955
-0.268318
-0.268645
-0.26892
-0.26913
-0.269256
-0.269281
-0.269183
-0.268941
-0.268542
-0.268006
-0.267285
-0.266256
-0.262143
-0.263381
-0.26409
-0.264667
-0.265165
-0.2656
-0.266002
-0.266392
-0.26678
-0.26717
-0.267562
-0.267949
-0.268324
-0.268677
-0.268994
-0.269263
-0.269466
-0.269586
-0.269602
-0.269491
-0.269227
-0.268788
-0.268194
-0.267409
-0.26611
-0.262916
-0.264076
-0.264741
-0.265281
-0.265745
-0.266149
-0.266524
-0.266888
-0.267252
-0.26762
-0.267991
-0.268361
-0.268721
-0.26906
-0.269366
-0.269625
-0.26982
-0.269933
-0.269939
-0.269814
-0.269528
-0.269047
-0.268384
-0.267555
-0.265868
-0.263758
-0.264835
-0.265453
-0.265951
-0.266377
-0.266747
-0.267089
-0.267422
-0.267757
-0.268099
-0.268447
-0.268795
-0.269135
-0.269458
-0.26975
-0.269997
-0.270182
-0.270284
-0.270281
-0.270141
-0.269832
-0.269309
-0.268567
-0.267745
-0.265467
-0.264662
-0.265652
-0.266219
-0.266672
-0.267056
-0.267386
-0.267691
-0.267988
-0.26829
-0.268601
-0.26892
-0.269242
-0.269559
-0.269861
-0.270135
-0.270367
-0.270539
-0.270629
-0.270613
-0.270459
-0.270127
-0.269565
-0.268728
-0.267998
-0.264915
-0.26562
-0.266521
-0.267034
-0.267439
-0.267776
-0.268062
-0.268323
-0.26858
-0.268843
-0.269117
-0.269402
-0.269693
-0.269982
-0.270259
-0.270511
-0.270723
-0.270878
-0.270954
-0.270924
-0.270752
-0.270397
-0.269805
-0.268848
-0.268108
-0.264571
-0.266624
-0.267436
-0.267892
-0.268245
-0.268531
-0.268768
-0.268981
-0.269191
-0.269409
-0.26964
-0.269885
-0.270139
-0.270395
-0.270642
-0.270867
-0.271056
-0.27119
-0.271247
-0.271198
-0.271007
-0.270625
-0.270009
-0.268947
-0.268199
-0.264091
-0.267668
-0.268391
-0.268789
-0.269086
-0.269317
-0.269499
-0.269658
-0.269814
-0.269981
-0.270163
-0.270362
-0.270573
-0.270789
-0.271
-0.271193
-0.271352
-0.27146
-0.271494
-0.271423
-0.27121
-0.270795
-0.270166
-0.268961
-0.268328
-0.263435
-0.268746
-0.269381
-0.26972
-0.269959
-0.27013
-0.270251
-0.270349
-0.270445
-0.270553
-0.270679
-0.270824
-0.270986
-0.271156
-0.271325
-0.271479
-0.271604
-0.271681
-0.271684
-0.271585
-0.271345
-0.270889
-0.270261
-0.26886
-0.268472
-0.262625
-0.269853
-0.270404
-0.270682
-0.270859
-0.270965
-0.271019
-0.27105
-0.271079
-0.27112
-0.271182
-0.271267
-0.271372
-0.271489
-0.271609
-0.271719
-0.271803
-0.271842
-0.27181
-0.271675
-0.271404
-0.270891
-0.270283
-0.26862
-0.268602
-0.261671
-0.270987
-0.271457
-0.271672
-0.271784
-0.27182
-0.271802
-0.271758
-0.271711
-0.271679
-0.271669
-0.271685
-0.271725
-0.271783
-0.271847
-0.271906
-0.271942
-0.271936
-0.271862
-0.271684
-0.271375
-0.270787
-0.270219
-0.26822
-0.268683
-0.260591
-0.272144
-0.272537
-0.27269
-0.272733
-0.272694
-0.272596
-0.27247
-0.27234
-0.272225
-0.272135
-0.272075
-0.272043
-0.272033
-0.272035
-0.272036
-0.272018
-0.271961
-0.271837
-0.271607
-0.271256
-0.270569
-0.27006
-0.267652
-0.268669
-0.259423
-0.273326
-0.273646
-0.273735
-0.273706
-0.273586
-0.273402
-0.273185
-0.272964
-0.272758
-0.27258
-0.272435
-0.272323
-0.272239
-0.272171
-0.272107
-0.272029
-0.271913
-0.271733
-0.271442
-0.27104
-0.270231
-0.269791
-0.266924
-0.268497
-0.25822
-0.274533
-0.274785
-0.274809
-0.274703
-0.274497
-0.274218
-0.273904
-0.273582
-0.273277
-0.273002
-0.272765
-0.272566
-0.272399
-0.272256
-0.272121
-0.271975
-0.271794
-0.271549
-0.271186
-0.270727
-0.269776
-0.269393
-0.266058
-0.268094
-0.257041
-0.275769
-0.275956
-0.275914
-0.275727
-0.275428
-0.275048
-0.274627
-0.274197
-0.273784
-0.273404
-0.273067
-0.272773
-0.272518
-0.272292
-0.272079
-0.27186
-0.271607
-0.27129
-0.270843
-0.270314
-0.269206
-0.268842
-0.265088
-0.267385
-0.255925
-0.277039
-0.277166
-0.277054
-0.276781
-0.276383
-0.275895
-0.275359
-0.274812
-0.274283
-0.27379
-0.273345
-0.272949
-0.272599
-0.272284
-0.271988
-0.271688
-0.271356
-0.270956
-0.270415
-0.269795
-0.268525
-0.268107
-0.264039
-0.26631
-0.25487
-0.278352
-0.278418
-0.278234
-0.277871
-0.277366
-0.276762
-0.276103
-0.275431
-0.274778
-0.274165
-0.273605
-0.273101
-0.27265
-0.272241
-0.271855
-0.271468
-0.271046
-0.270552
-0.269901
-0.269163
-0.267732
-0.267159
-0.26292
-0.264845
-0.253826
-0.279715
-0.279723
-0.279463
-0.279002
-0.278384
-0.277655
-0.276866
-0.276061
-0.275276
-0.274536
-0.273855
-0.273237
-0.27268
-0.27217
-0.271688
-0.271205
-0.270683
-0.27008
-0.269302
-0.268411
-0.266819
-0.26598
-0.26171
-0.263004
-0.252709
-0.28114
-0.281088
-0.280747
-0.280183
-0.279444
-0.278582
-0.277654
-0.276709
-0.275786
-0.274912
-0.274104
-0.273367
-0.272698
-0.272082
-0.271496
-0.270907
-0.270272
-0.269538
-0.268611
-0.267526
-0.265768
-0.264559
-0.260365
-0.260835
-0.25143
-0.282641
-0.282526
-0.282096
-0.281422
-0.280554
-0.279552
-0.278477
-0.277385
-0.276316
-0.275303
-0.274363
-0.273503
-0.272716
-0.271987
-0.271288
-0.270581
-0.269813
-0.268923
-0.267818
-0.266495
-0.264552
-0.262897
-0.258829
-0.25839
-0.249917
-0.284231
-0.284045
-0.283523
-0.282729
-0.281723
-0.280572
-0.279345
-0.278098
-0.276879
-0.275722
-0.274645
-0.273656
-0.272745
-0.271895
-0.271072
-0.270228
-0.269305
-0.268229
-0.266909
-0.265304
-0.263141
-0.260994
-0.257054
-0.2557
-0.248116
-0.285925
-0.28566
-0.285037
-0.284114
-0.282962
-0.281655
-0.280267
-0.278861
-0.277486
-0.27618
-0.274963
-0.273838
-0.272798
-0.271816
-0.270852
-0.269851
-0.268742
-0.267443
-0.265866
-0.263939
-0.26151
-0.258853
-0.255
-0.252744
-0.245988
-0.287742
-0.287385
-0.28665
-0.28559
-0.284283
-0.282812
-0.281256
-0.279685
-0.27815
-0.276691
-0.275328
-0.274063
-0.272883
-0.271756
-0.270632
-0.269445
-0.268116
-0.266553
-0.264672
-0.262387
-0.259642
-0.256485
-0.252648
-0.24945
-0.243574
-0.289698
-0.289234
-0.288377
-0.287168
-0.285697
-0.284054
-0.282325
-0.280583
-0.278884
-0.277268
-0.275754
-0.274341
-0.27301
-0.27172
-0.27041
-0.269004
-0.267413
-0.265541
-0.263312
-0.260638
-0.257534
-0.253917
-0.249991
-0.245822
-0.241052
-0.291808
-0.291223
-0.29023
-0.288862
-0.287216
-0.285394
-0.283486
-0.281568
-0.279701
-0.277924
-0.276252
-0.274682
-0.273184
-0.271708
-0.270181
-0.268516
-0.266619
-0.264394
-0.261776
-0.258691
-0.255197
-0.251177
-0.24704
-0.24218
-0.238388
-0.294092
-0.293366
-0.292223
-0.290684
-0.288855
-0.286845
-0.284751
-0.282654
-0.280615
-0.27867
-0.276833
-0.275092
-0.273407
-0.271716
-0.269935
-0.267968
-0.265719
-0.263097
-0.260058
-0.256547
-0.252654
-0.248276
-0.24383
-0.238732
-0.234594
-0.296567
-0.295676
-0.29437
-0.292648
-0.290625
-0.28842
-0.286135
-0.283854
-0.281637
-0.279518
-0.277505
-0.275576
-0.273679
-0.271738
-0.269661
-0.267344
-0.264697
-0.261643
-0.258159
-0.254219
-0.249933
-0.245223
-0.24049
-0.235188
-0.230685
-0.299249
-0.29817
-0.296685
-0.294766
-0.292539
-0.290132
-0.28765
-0.285179
-0.282779
-0.280478
-0.278274
-0.276134
-0.273994
-0.271763
-0.269342
-0.266629
-0.263542
-0.260027
-0.256086
-0.251721
-0.24706
-0.242048
-0.237052
-0.231589
-0.226857
-0.302156
-0.300862
-0.299181
-0.297053
-0.294611
-0.291994
-0.289309
-0.286644
-0.284052
-0.281556
-0.279143
-0.276765
-0.274342
-0.271777
-0.268963
-0.265806
-0.262244
-0.258248
-0.253848
-0.249074
-0.244061
-0.238774
-0.233548
-0.227953
-0.223044
-0.305301
-0.303764
-0.301871
-0.29952
-0.296854
-0.294018
-0.291125
-0.288258
-0.285465
-0.282759
-0.280112
-0.277461
-0.274713
-0.271761
-0.268505
-0.264863
-0.260799
-0.256313
-0.251461
-0.246296
-0.240958
-0.235422
-0.229995
-0.224279
-0.219251
-0.308698
-0.306889
-0.304767
-0.302181
-0.29928
-0.296219
-0.29311
-0.290032
-0.287026
-0.284089
-0.281177
-0.278211
-0.275088
-0.271699
-0.267952
-0.26379
-0.259204
-0.254228
-0.248938
-0.243407
-0.237769
-0.232008
-0.226402
-0.220577
-0.215449
-0.312361
-0.310251
-0.307882
-0.305048
-0.301901
-0.298607
-0.295275
-0.291976
-0.288738
-0.285543
-0.282329
-0.279001
-0.275449
-0.271569
-0.267288
-0.262578
-0.257463
-0.252003
-0.246295
-0.24042
-0.234506
-0.22854
-0.222772
-0.216844
-0.211629
-0.3163
-0.313859
-0.311227
-0.308132
-0.304731
-0.301196
-0.29763
-0.294095
-0.290604
-0.287118
-0.283557
-0.279813
-0.275775
-0.271353
-0.266501
-0.261224
-0.255577
-0.249648
-0.243542
-0.237347
-0.231179
-0.225023
-0.219103
-0.213078
-0.20778
-0.320524
-0.317723
-0.314813
-0.311444
-0.30778
-0.303994
-0.300184
-0.296395
-0.292622
-0.288803
-0.284843
-0.280624
-0.276043
-0.271033
-0.265579
-0.259724
-0.253553
-0.247171
-0.240691
-0.234196
-0.22779
-0.221457
-0.215395
-0.209276
-0.203895
-0.325042
-0.321851
-0.318647
-0.314995
-0.311058
-0.307012
-0.302942
-0.298876
-0.294784
-0.290585
-0.286166
-0.28141
-0.27623
-0.27059
-0.264513
-0.258079
-0.251395
-0.244581
-0.237746
-0.230972
-0.224342
-0.217842
-0.211642
-0.205431
-0.199968
-0.329859
-0.32625
-0.322739
-0.318793
-0.314574
-0.310257
-0.305909
-0.301535
-0.297081
-0.292444
-0.287501
-0.282144
-0.276313
-0.270009
-0.263298
-0.256288
-0.249108
-0.241882
-0.234713
-0.227673
-0.220832
-0.214173
-0.207839
-0.20154
-0.195992
-0.334978
-0.330925
-0.327094
-0.322846
-0.318335
-0.313732
-0.309082
-0.304364
-0.299495
-0.294354
-0.288819
-0.2828
-0.276271
-0.269279
-0.261927
-0.254352
-0.246695
-0.239076
-0.23159
-0.2243
-0.217257
-0.210444
-0.20398
-0.197595
-0.191962
-0.340398
-0.335876
-0.331716
-0.327157
-0.322345
-0.317439
-0.312457
-0.307348
-0.302002
-0.296288
-0.29009
-0.283349
-0.276083
-0.268386
-0.260396
-0.252272
-0.244155
-0.236163
-0.228377
-0.220847
-0.21361
-0.206649
-0.200058
-0.19359
-0.187872
-0.346116
-0.341104
-0.336604
-0.331729
-0.326604
-0.321373
-0.316022
-0.310467
-0.304575
-0.298211
-0.29128
-0.283763
-0.275731
-0.26732
-0.258702
-0.250045
-0.241489
-0.233141
-0.225068
-0.217308
-0.209885
-0.202781
-0.196067
-0.189521
-0.183719
-0.352125
-0.346602
-0.341758
-0.336558
-0.331106
-0.325523
-0.319758
-0.313693
-0.30718
-0.300087
-0.292355
-0.284018
-0.275197
-0.266074
-0.25684
-0.247668
-0.238693
-0.230004
-0.221657
-0.213677
-0.206076
-0.198833
-0.192
-0.185379
-0.179495
-0.358411
-0.352363
-0.347169
-0.341639
-0.335843
-0.329874
-0.323641
-0.316994
-0.309776
-0.301877
-0.293283
-0.284087
-0.274466
-0.264636
-0.254803
-0.245138
-0.23576
-0.226747
-0.218138
-0.209946
-0.202173
-0.194797
-0.187851
-0.181161
-0.175196
-0.364958
-0.358373
-0.352827
-0.346959
-0.340797
-0.334402
-0.327638
-0.320328
-0.31232
-0.303538
-0.294028
-0.283947
-0.273524
-0.262999
-0.252586
-0.242446
-0.232685
-0.223361
-0.2145
-0.206106
-0.198168
-0.190666
-0.183611
-0.176858
-0.170817
-0.371743
-0.364613
-0.358714
-0.352499
-0.345947
-0.339076
-0.331709
-0.32365
-0.314765
-0.305029
-0.294559
-0.283577
-0.272354
-0.261152
-0.25018
-0.239586
-0.229458
-0.219838
-0.210736
-0.202148
-0.194054
-0.186432
-0.179276
-0.172466
-0.166352
-0.378737
-0.371058
-0.364807
-0.358235
-0.35126
-0.343857
-0.335806
-0.326908
-0.317061
-0.30631
-0.294846
-0.282954
-0.270944
-0.259084
-0.247576
-0.236548
-0.22607
-0.216166
-0.206836
-0.198063
-0.189822
-0.182087
-0.174838
-0.167979
-0.161797
-0.385904
-0.377679
-0.371077
-0.364133
-0.356698
-0.348697
-0.339877
-0.330047
-0.319159
-0.307338
-0.294857
-0.282059
-0.269279
-0.256785
-0.244763
-0.233322
-0.22251
-0.212336
-0.202789
-0.193842
-0.185464
-0.177624
-0.170292
-0.163391
-0.157148
-0.393202
-0.384436
-0.377486
-0.370155
-0.362214
-0.353541
-0.343861
-0.333008
-0.321007
-0.308075
-0.294566
-0.280872
-0.267344
-0.254241
-0.241729
-0.229895
-0.218766
-0.208337
-0.198585
-0.189476
-0.180971
-0.173036
-0.16563
-0.158697
-0.152398
-0.400581
-0.391287
-0.38399
-0.376251
-0.367753
-0.358329
-0.347693
-0.33573
-0.322554
-0.308482
-0.293944
-0.279373
-0.265123
-0.251439
-0.238462
-0.226255
-0.214827
-0.204158
-0.194215
-0.184956
-0.176336
-0.168317
-0.160848
-0.153892
-0.147546
-0.407985
-0.39818
-0.390538
-0.382364
-0.373251
-0.36299
-0.351306
-0.338152
-0.323751
-0.308522
-0.292966
-0.277543
-0.262602
-0.248365
-0.234948
-0.222389
-0.21068
-0.199788
-0.189669
-0.180272
-0.17155
-0.163459
-0.15594
-0.14897
-0.142585
-0.41535
-0.405055
-0.397069
-0.388432
-0.378638
-0.367452
-0.354629
-0.340214
-0.32455
-0.308162
-0.291607
-0.275362
-0.259762
-0.245003
-0.231172
-0.218284
-0.206315
-0.195216
-0.184936
-0.175418
-0.166608
-0.158456
-0.1509
-0.143927
-0.137514
-0.422605
-0.411847
-0.403517
-0.394381
-0.383838
-0.371637
-0.357589
-0.341855
-0.324906
-0.307367
-0.289842
-0.272811
-0.256589
-0.241339
-0.227121
-0.213928
-0.201718
-0.190432
-0.180009
-0.170385
-0.161502
-0.153303
-0.145724
-0.138758
-0.132328
-0.429675
-0.418484
-0.409808
-0.400134
-0.388767
-0.375464
-0.360114
-0.343016
-0.324776
-0.306106
-0.287647
-0.269871
-0.253063
-0.237357
-0.222781
-0.209307
-0.196878
-0.185425
-0.174877
-0.165165
-0.156225
-0.147995
-0.140408
-0.133461
-0.127025
-0.436476
-0.424888
-0.415861
-0.405605
-0.39334
-0.378851
-0.362135
-0.343644
-0.324118
-0.304349
-0.284999
-0.266522
-0.24917
-0.233041
-0.218137
-0.204409
-0.191785
-0.180186
-0.169533
-0.159751
-0.150771
-0.142526
-0.134947
-0.12803
-0.121602
-0.44292
-0.430974
-0.42159
-0.410705
-0.397468
-0.381715
-0.363582
-0.343684
-0.322893
-0.302067
-0.281875
-0.262745
-0.244891
-0.228376
-0.213175
-0.199221
-0.186427
-0.174705
-0.163969
-0.154138
-0.145136
-0.136892
-0.129337
-0.122464
-0.116059
-0.448917
-0.436653
-0.426905
-0.415341
-0.40106
-0.383977
-0.36439
-0.343088
-0.321066
-0.299234
-0.278255
-0.258522
-0.24021
-0.223347
-0.207883
-0.193732
-0.180795
-0.168975
-0.158179
-0.148318
-0.139314
-0.131089
-0.123576
-0.116759
-0.110394
-0.454372
-0.441833
-0.431709
-0.419418
-0.404024
-0.385557
-0.364496
-0.341809
-0.318604
-0.295824
-0.274117
-0.253835
-0.235111
-0.21794
-0.202248
-0.187932
-0.17488
-0.162988
-0.152155
-0.142287
-0.133301
-0.125114
-0.117661
-0.110914
-0.104606
-0.459186
-0.446419
-0.435908
-0.42284
-0.406274
-0.38638
-0.363842
-0.339806
-0.315475
-0.291814
-0.269442
-0.248667
-0.22958
-0.212143
-0.196259
-0.18181
-0.168674
-0.156737
-0.145892
-0.13604
-0.127094
-0.118965
-0.111589
-0.104927
-0.0986959
-0.463263
-0.450313
-0.439402
-0.425511
-0.407721
-0.386375
-0.362377
-0.337039
-0.311651
-0.287181
-0.264212
-0.243003
-0.223602
-0.205942
-0.189906
-0.175358
-0.16217
-0.150217
-0.139386
-0.129574
-0.120689
-0.112638
-0.105358
-0.0987983
-0.0926675
-0.466504
-0.453419
-0.442095
-0.427337
-0.408284
-0.385478
-0.36005
-0.333475
-0.307108
-0.281907
-0.258409
-0.236826
-0.217165
-0.199328
-0.183178
-0.16857
-0.155361
-0.143421
-0.132632
-0.122886
-0.114084
-0.106131
-0.0989657
-0.0925267
-0.0865241
-0.468814
-0.45564
-0.443891
-0.428229
-0.407885
-0.383628
-0.356819
-0.329084
-0.301822
-0.275972
-0.25202
-0.230125
-0.210257
-0.19229
-0.17607
-0.161437
-0.148242
-0.136348
-0.125629
-0.115974
-0.107278
-0.0994422
-0.0924083
-0.0861073
-0.0802558
-0.470099
-0.456884
-0.444697
-0.428102
-0.406455
-0.380773
-0.352647
-0.323838
-0.295775
-0.269362
-0.24503
-0.222889
-0.202869
-0.184821
-0.168574
-0.153956
-0.140811
-0.128994
-0.118375
-0.108836
-0.10027
-0.0925729
-0.0856896
-0.0795381
-0.0738238
-0.47027
-0.457059
-0.444425
-0.426875
-0.403929
-0.376864
-0.347502
-0.317717
-0.288951
-0.262063
-0.237429
-0.215107
-0.194993
-0.176915
-0.160685
-0.146124
-0.133065
-0.121358
-0.110868
-0.101473
-0.0930611
-0.0855258
-0.0788203
-0.0728334
-0.0671806
-0.469243
-0.456082
-0.442994
-0.424478
-0.40025
-0.371864
-0.341357
-0.310702
-0.281335
-0.254066
-0.229208
-0.206773
-0.186623
-0.168566
-0.152401
-0.137937
-0.125002
-0.113439
-0.103109
-0.0938861
-0.0856523
-0.0783035
-0.0718044
-0.0660095
-0.0603717
-0.466939
-0.453873
-0.440328
-0.420846
-0.39537
-0.365738
-0.334192
-0.302779
-0.27292
-0.245362
-0.220361
-0.197881
-0.177756
-0.159774
-0.14372
-0.129396
-0.116623
-0.105239
-0.0950997
-0.0860769
-0.0780465
-0.070909
-0.0646296
-0.0589767
-0.0535757
-0.463289
-0.45036
-0.43636
-0.415924
-0.38925
-0.358463
-0.325992
-0.29394
-0.263697
-0.235947
-0.210883
-0.18843
-0.168391
-0.150536
-0.134642
-0.120502
-0.10793
-0.0967596
-0.0868426
-0.0780493
-0.0702484
-0.0633458
-0.0572967
-0.0518173
-0.0466922
-0.45823
-0.44548
-0.431031
-0.409664
-0.381858
-0.350019
-0.316747
-0.284181
-0.253666
-0.225819
-0.200775
-0.178418
-0.158527
-0.140855
-0.12517
-0.111257
-0.0989247
-0.088006
-0.0783438
-0.0698059
-0.0622611
-0.0556163
-0.0498155
-0.0445423
-0.0397001
-0.451708
-0.439178
-0.424293
-0.40203
-0.373171
-0.340396
-0.306454
-0.2735
-0.242826
-0.214979
-0.190039
-0.167849
-0.148167
-0.130734
-0.115307
-0.101666
-0.0896156
-0.078981
-0.0696062
-0.0613529
-0.0540899
-0.0477258
-0.0421944
-0.037152
-0.0325989
-0.44368
-0.431408
-0.416106
-0.392996
-0.363177
-0.329591
-0.295114
-0.261902
-0.231183
-0.203434
-0.178677
-0.156726
-0.137317
-0.120178
-0.105062
-0.0917366
-0.0800062
-0.0696921
-0.0606363
-0.0526966
-0.045741
-0.0396805
-0.0344398
-0.0296468
-0.0253951
-0.434112
-0.422137
-0.406443
-0.382544
-0.351869
-0.317607
-0.282737
-0.249397
-0.218746
-0.191189
-0.166699
-0.145059
-0.125987
-0.109198
-0.0944383
-0.0814747
-0.0701045
-0.0601469
-0.0514417
-0.0438442
-0.0372215
-0.0314878
-0.0265579
-0.0220306
-0.0180959
-0.422981
-0.411338
-0.395284
-0.370667
-0.339252
-0.304455
-0.269334
-0.235996
-0.205525
-0.178254
-0.154116
-0.13286
-0.114184
-0.0978016
-0.0834485
-0.0708902
-0.0599198
-0.0503542
-0.0420313
-0.0348042
-0.0285396
-0.0231554
-0.0185554
-0.0143093
-0.0107089
-0.410274
-0.398999
-0.382624
-0.357369
-0.325338
-0.29015
-0.254923
-0.221718
-0.191536
-0.164643
-0.14095
-0.120139
-0.101923
-0.0860005
-0.0721037
-0.0599944
-0.049463
-0.0403243
-0.0324149
-0.025586
-0.0197044
-0.0146921
-0.0104401
-0.00649041
-0.00324194
-0.39599
-0.385117
-0.368464
-0.342662
-0.310147
-0.274718
-0.23953
-0.206583
-0.176799
-0.150393
-0.127199
-0.106912
-0.0892171
-0.0738095
-0.0604174
-0.0488002
-0.0387463
-0.030069
-0.0226036
-0.0162
-0.0107261
-0.0061073
-0.00222068
0.00141719
0.00429655
-0.380138
-0.369699
-0.352821
-0.326569
-0.293706
-0.258188
-0.223182
-0.19062
-0.161346
-0.135504
-0.112895
-0.0931986
-0.0760845
-0.061245
-0.0484049
-0.0373221
-0.0277833
-0.0196009
-0.0126095
-0.00665803
-0.00161562
0.00258861
0.00609295
0.00940373
0.0118974
-0.362738
-0.352764
-0.335716
-0.309118
-0.27605
-0.240596
-0.205913
-0.173859
-0.145196
-0.120007
-0.0980604
-0.0790193
-0.0625449
-0.0483252
-0.0360834
-0.025576
-0.0165889
-0.00893423
-0.00244598
0.00302751
0.007615
0.0113844
0.0144902
0.0174584
0.0195507
-0.343821
-0.334342
-0.317186
-0.290351
-0.257224
-0.221985
-0.187761
-0.156333
-0.128381
-0.103931
-0.08272
-0.0643984
-0.0486202
-0.0350707
-0.0234719
-0.0135796
-0.00517966
0.00191579
0.00787279
0.0128431
0.0169529
0.0202678
0.0229595
0.0255695
0.0272451
-0.323426
-0.314471
-0.297273
-0.270321
-0.237287
-0.202387
-0.168765
-0.138081
-0.110936
-0.0873071
-0.0669026
-0.0493622
-0.0343347
-0.0215037
-0.0105908
-0.00135184
0.00642694
0.0129328
0.0183315
0.0227742
0.0263843
0.0292258
0.0314883
0.0337238
0.0349684
-0.301605
-0.293199
-0.27603
-0.249093
-0.216297
-0.181843
-0.148972
-0.119145
-0.0929002
-0.0701695
-0.0506393
-0.0339392
-0.0197146
-0.00764839
0.00253763
0.0110868
0.018212
0.0240994
0.028914
0.0328058
0.0358946
0.0382447
0.040063
0.041906
0.0427058
-0.278413
-0.270584
-0.253524
-0.226721
-0.194234
-0.160476
-0.12844
-0.0995707
-0.0743134
-0.0525556
-0.0339639
-0.0181603
-0.00478813
0.0064694
0.0158897
0.0237146
0.0301556
0.0353973
0.0396033
0.0429219
0.045469
0.04731
0.0486688
0.050098
0.0504366
-0.253915
-0.246703
-0.22984
-0.203214
-0.171256
-0.138298
-0.107223
-0.079408
-0.0552203
-0.0345053
-0.0169127
-0.00205848
0.0104145
0.0208221
0.0294401
0.0365086
0.0422367
0.0468071
0.0503818
0.0531063
0.0550919
0.0564071
0.0572909
0.0582806
0.0581336
-0.228183
-0.221634
-0.205059
-0.178648
-0.147414
-0.115376
-0.0853775
-0.0587094
-0.0356679
-0.0160611
0.000475951
0.0143311
0.0258613
0.0353806
0.0431625
0.0494445
0.0544332
0.0583088
0.0612312
0.063342
0.0647472
0.065521
0.065917
0.0664396
0.06578
-0.201291
-0.195454
-0.179107
-0.153273
-0.122786
-0.0917826
-0.0629662
-0.0375303
-0.0157058
0.00273226
0.0181613
0.0309716
0.0415187
0.0501143
0.0570289
0.0624971
0.0667222
0.0698817
0.0721327
0.0736114
0.0744175
0.0746367
0.0745373
0.0745671
0.0733704
-0.17331
-0.168274
-0.152236
-0.127051
-0.0974507
-0.0675913
-0.0400532
-0.0159284
0.00461378
0.0218277
0.0361008
0.0478244
0.0573517
0.0649914
0.0710105
0.07564
0.0790798
0.0815043
0.083067
0.0838963
0.084086
0.0837412
0.0831426
0.0826293
0.0808056
-0.144341
-0.140195
-0.124546
-0.100074
-0.0714879
-0.0428781
-0.016706
0.00603616
0.0252368
0.0411764
0.0542502
0.0648492
0.0733238
0.0799787
0.0850771
0.088846
0.0914816
0.0931548
0.0940143
0.0941791
0.0937398
0.0928316
0.0917195
0.0905117
0.0877753
-0.114642
-0.111207
-0.0961071
-0.0724437
-0.0449834
-0.0177207
0.00700599
0.028301
0.0461071
0.0607276
0.0725634
0.0820044
0.089397
0.0950419
0.0991976
0.102087
0.103902
0.10481
0.104954
0.104443
0.103373
0.101915
0.100251
0.0980765
0.0940576
-0.084216
-0.0814789
-0.0670156
-0.0442583
-0.018026
0.00780092
0.0310109
0.0508017
0.0671667
0.0804289
0.0909932
0.0992471
0.105533
0.110146
0.11334
0.115334
0.116316
0.116447
0.115866
0.114673
0.112979
0.110987
0.108711
0.105389
0.100349
-0.0531464
-0.0511453
-0.0373779
-0.0156186
0.00929249
0.0336046
0.0552352
0.0734725
0.0883564
0.100227
0.109491
0.116533
0.121691
0.125254
0.127472
0.128558
0.128695
0.128041
0.126727
0.12485
0.122542
0.120006
0.117038
0.112642
0.108734
-0.0215564
-0.0203208
-0.00730386
0.0133723
0.0368787
0.0596066
0.079604
0.0962462
0.109616
0.120067
0.128007
0.133818
0.137831
0.14033
0.14156
0.141728
0.141012
0.139567
0.137516
0.134957
0.132033
0.128916
0.12525
0.120261
0.117069
0.0104301
0.0108798
0.0230937
0.0426098
0.0646377
0.0857219
0.104041
0.119054
0.130883
0.139892
0.146492
0.151056
0.153912
0.155337
0.155569
0.154813
0.15324
0.151
0.148211
0.144971
0.141429
0.137712
0.133411
0.128036
0.124947
0.04269
0.0423387
0.0537005
0.0719879
0.0924737
0.111865
0.12847
0.141828
0.152095
0.159648
0.164894
0.168202
0.169891
0.170236
0.169467
0.167782
0.16535
0.162314
0.158787
0.154869
0.150705
0.146386
0.141513
0.135809
0.132549
0.0750991
0.0739361
0.0844011
0.1014
0.12029
0.137949
0.152813
0.164497
0.173191
0.179277
0.183162
0.185207
0.185728
0.184989
0.183217
0.180605
0.177314
0.173483
0.169221
0.164628
0.159841
0.154928
0.149518
0.143469
0.139897
0.107532
0.105551
0.11508
0.130739
0.147992
0.163888
0.176993
0.186993
0.194106
0.198723
0.201244
0.202027
0.201379
0.199558
0.196786
0.193248
0.189102
0.184481
0.179489
0.174225
0.168819
0.163322
0.157394
0.150978
0.147018
0.139864
0.137062
0.145621
0.159899
0.175481
0.189595
0.200932
0.209245
0.214779
0.217928
0.21909
0.218614
0.216802
0.213906
0.210139
0.205682
0.200687
0.195281
0.189567
0.183639
0.177617
0.171546
0.165112
0.158311
0.153922
0.17197
0.168347
0.175908
0.188774
0.202663
0.214986
0.224554
0.231184
0.235146
0.236836
0.236647
0.234923
0.231956
0.227993
0.223241
0.217875
0.21204
0.20586
0.199431
0.192846
0.186217
0.179583
0.172649
0.165453
0.16061
0.203725
0.199286
0.205829
0.217259
0.229443
0.239975
0.247782
0.252742
0.255145
0.255391
0.253865
0.250906
0.246799
0.241783
0.236059
0.229795
0.223133
0.216189
0.209058
0.201826
0.1946
0.187411
0.179986
0.17239
0.167078
0.235007
0.229759
0.23527
0.245252
0.255729
0.264478
0.270541
0.273851
0.274716
0.273537
0.270695
0.26652
0.26129
0.255238
0.248558
0.241413
0.233938
0.226245
0.218424
0.210557
0.202746
0.195014
0.187107
0.179112
0.173322
0.265694
0.259648
0.26412
0.27265
0.281429
0.288415
0.292758
0.294444
0.293798
0.29122
0.287086
0.281718
0.275388
0.268321
0.260705
0.252698
0.244428
0.236003
0.227507
0.219021
0.210637
0.202374
0.193996
0.185606
0.179336
0.295669
0.288839
0.292271
0.299354
0.306454
0.311704
0.31436
0.314456
0.312332
0.308387
0.302991
0.296459
0.289054
0.280997
0.272469
0.26362
0.254576
0.245438
0.236286
0.227196
0.218254
0.209475
0.200638
0.191861
0.185111
0.324815
0.317219
0.319617
0.32527
0.330717
0.334267
0.335277
0.333824
0.330261
0.324986
0.318363
0.310698
0.30225
0.293231
0.283817
0.274152
0.264357
0.254527
0.244739
0.235063
0.225581
0.216301
0.207021
0.197866
0.190639
0.35302
0.344679
0.346057
0.350302
0.354135
0.35603
0.35544
0.352486
0.347529
0.340967
0.333155
0.324395
0.314938
0.304989
0.294719
0.284266
0.273745
0.263247
0.252845
0.242605
0.2326
0.222837
0.213131
0.203609
0.195913
0.380175
0.371113
0.371491
0.374363
0.376625
0.376919
0.374785
0.370382
0.364082
0.356279
0.347324
0.33751
0.327082
0.316239
0.305145
0.293935
0.282716
0.271577
0.260585
0.249802
0.239296
0.229069
0.218954
0.20908
0.200925
0.406175
0.39642
0.395825
0.397364
0.398111
0.396864
0.393248
0.387456
0.379869
0.370878
0.360827
0.350005
0.338647
0.326948
0.315067
0.303132
0.291247
0.279495
0.267939
0.256638
0.245653
0.234983
0.22448
0.214267
0.205666
0.430921
0.420503
0.418968
0.419224
0.418519
0.415798
0.410768
0.403653
0.39484
0.384718
0.373625
0.361842
0.3496
0.337088
0.324458
0.311835
0.299316
0.286981
0.27489
0.263097
0.251656
0.240566
0.229694
0.219159
0.210128
0.454318
0.44327
0.440835
0.439865
0.437777
0.433659
0.427288
0.41892
0.408948
0.397756
0.385677
0.372987
0.35991
0.346629
0.333292
0.320018
0.306902
0.294017
0.28142
0.269162
0.257291
0.245805
0.234588
0.223748
0.214304
0.476275
0.464635
0.461344
0.459213
0.45582
0.450385
0.442755
0.43321
0.422149
0.409953
0.396949
0.383407
0.369546
0.355544
0.341544
0.32766
0.313983
0.300583
0.287514
0.27482
0.262546
0.250689
0.239149
0.228023
0.218188
0.49671
0.484515
0.48042
0.477199
0.472585
0.465922
0.457118
0.446477
0.434402
0.421271
0.407406
0.393071
0.378481
0.363809
0.349192
0.334742
0.320543
0.306664
0.293155
0.280056
0.267408
0.255206
0.243367
0.231974
0.221771
0.515544
0.502837
0.497992
0.493759
0.488015
0.480217
0.470329
0.458677
0.445667
0.431675
0.417016
0.401951
0.386689
0.371399
0.356215
0.341242
0.326564
0.312244
0.298329
0.284858
0.271865
0.259347
0.247233
0.235595
0.225049
0.532704
0.519529
0.513996
0.508835
0.502057
0.493222
0.482345
0.469772
0.45591
0.441132
0.425751
0.410021
0.394147
0.378294
0.362592
0.347144
0.332029
0.317308
0.303025
0.289215
0.275908
0.263102
0.250739
0.238877
0.228016
0.548126
0.53453
0.528373
0.522374
0.514662
0.504894
0.493127
0.479725
0.465098
0.449614
0.433583
0.417255
0.400831
0.384473
0.368307
0.352432
0.336925
0.321843
0.307229
0.293114
0.279526
0.266462
0.253876
0.241812
0.230666
0.561751
0.547781
0.54107
0.534326
0.525788
0.515193
0.502641
0.488506
0.473202
0.457095
0.440489
0.423633
0.406724
0.389919
0.373342
0.357091
0.341237
0.325837
0.310931
0.296548
0.282711
0.269419
0.256637
0.244395
0.232994
0.573528
0.559234
0.55204
0.54465
0.535396
0.524086
0.510853
0.496085
0.480196
0.46355
0.446449
0.429136
0.411807
0.394616
0.377685
0.361108
0.344955
0.329281
0.314122
0.299507
0.285455
0.271967
0.259015
0.246619
0.234998
0.58341
0.568844
0.561245
0.55331
0.543454
0.531543
0.517739
0.502439
0.486059
0.46896
0.451443
0.433747
0.416066
0.398552
0.381323
0.364473
0.348069
0.332164
0.316794
0.301984
0.287752
0.274099
0.261006
0.248481
0.236673
0.591361
0.576576
0.568649
0.560275
0.549933
0.537538
0.523274
0.507547
0.490771
0.473309
0.455456
0.437452
0.419488
0.401714
0.384246
0.367175
0.35057
0.33448
0.31894
0.303973
0.289596
0.275811
0.262604
0.249975
0.238016
0.597351
0.582401
0.574225
0.56552
0.554812
0.542052
0.527442
0.511392
0.494319
0.476582
0.458477
0.440241
0.422064
0.404093
0.386445
0.369209
0.352452
0.336222
0.320554
0.305469
0.290983
0.277099
0.263806
0.251098
0.239026
0.601357
0.586296
0.577954
0.569027
0.558074
0.54507
0.530228
0.513962
0.49669
0.47877
0.460496
0.442105
0.423785
0.405683
0.387915
0.370568
0.353709
0.337386
0.321632
0.306469
0.29191
0.277959
0.264608
0.251848
0.2397
0.603364
0.588248
0.579822
0.570784
0.559708
0.546582
0.531623
0.51525
0.497877
0.479866
0.461507
0.443038
0.424647
0.406479
0.38865
0.371248
0.354339
0.337969
0.322172
0.306969
0.292374
0.278389
0.26501
0.252224
0.240037
0.603364
0.588248
0.579822
0.570784
0.559708
0.546582
0.531623
0.515249
0.497877
0.479865
0.461507
0.443038
0.424647
0.406479
0.38865
0.371248
0.354339