/*--------------------------------*- C++ -*----------------------------------*\
  =========                 |
  \\      /  F ield         | OpenFOAM: The Open Source CFD Toolbox
   \\    /   O peration     | Website:  https://openfoam.org
    \\  /    A nd           | Version:  7
     \\/     M anipulation  |
\*---------------------------------------------------------------------------*/
FoamFile
{
    version     2.0;
    format      ascii;
    class       surfaceScalarField;
    location    "45";
    object      phi;
}
// * * * * * * * * * * * * * * * * * * * * * * * * * * * * * * * * * * * * * //

dimensions      [0 3 -1 0 0 0 0];

internalField   nonuniform List<scalar> 
63130
(
-2.28605e-06
2.27919e-06
6.86014e-09
-8.41181e-06
6.10671e-06
1.90518e-08
-1.79522e-05
9.50995e-06
3.04003e-08
-3.05241e-05
1.2531e-05
4.08547e-08
-4.57848e-05
1.52104e-05
5.04197e-08
-6.34339e-05
1.75899e-05
5.91721e-08
-8.32123e-05
1.97112e-05
6.7257e-08
-0.000104903
2.16157e-05
7.48797e-08
-0.000128328
2.33427e-05
8.22874e-08
-0.000153346
2.49284e-05
8.97434e-08
-0.000179847
2.64032e-05
9.74985e-08
-0.000207743
2.77906e-05
1.05765e-07
-0.000236963
2.91054e-05
1.14696e-07
-0.000267441
3.03529e-05
1.24373e-07
-0.000299105
3.15295e-05
1.34798e-07
-0.000331874
3.26237e-05
1.45885e-07
-0.000365652
3.36199e-05
1.57455e-07
-0.000400326
3.45049e-05
1.69218e-07
-0.000435785
3.52784e-05
1.80758e-07
-0.000471946
3.59692e-05
1.91501e-07
-0.000508802
3.66555e-05
2.00688e-07
-0.0005465
3.74911e-05
2.07338e-07
-0.00058542
3.87093e-05
2.10237e-07
-0.000626195
4.0567e-05
2.07886e-07
4.3533e-05
1.98186e-07
-0.000669926
-2.26705e-06
4.54624e-06
-8.34495e-06
1.21846e-05
-1.78132e-05
1.89782e-05
-3.02917e-05
2.50096e-05
-4.54395e-05
3.03581e-05
-6.29562e-05
3.51066e-05
-8.25824e-05
3.93374e-05
-0.000104099
4.31325e-05
-0.000127327
4.65702e-05
-0.000152121
4.97223e-05
-0.000178367
5.26496e-05
-0.000205975
5.53986e-05
-0.000234868
5.79986e-05
-0.000264976
6.04602e-05
-0.000296221
6.27753e-05
-0.000328518
6.49201e-05
-0.00036176
6.68616e-05
-0.000395825
6.85698e-05
-0.000430585
7.0039e-05
-0.000465934
7.13184e-05
-0.000501833
7.25545e-05
-0.000538387
7.40444e-05
-0.000575931
7.62536e-05
-0.000615068
7.9704e-05
8.53404e-05
-0.000656875
-2.2294e-06
6.77564e-06
-8.21232e-06
1.81675e-05
-1.75374e-05
2.83032e-05
-2.98303e-05
3.73025e-05
-4.47532e-05
4.5281e-05
-6.20065e-05
5.23598e-05
-8.13292e-05
5.86602e-05
-0.0001025
6.43028e-05
-0.000125333
6.94037e-05
-0.000149679
7.40687e-05
-0.000175418
7.83879e-05
-0.000202449
8.243e-05
-0.000230688
8.62381e-05
-0.000260055
8.98269e-05
-0.000290463
9.31832e-05
-0.000321812
9.62688e-05
-0.00035398
9.90301e-05
-0.000386825
0.000101415
-0.000420188
0.000103402
-0.000453916
0.000105046
-0.000487906
0.000106544
-0.000522178
0.000108316
-0.000556982
0.000111058
-0.000592853
0.000115575
0.000123299
-0.000630811
-2.17387e-06
8.94952e-06
-8.01646e-06
2.40101e-05
-1.71296e-05
3.74164e-05
-2.91475e-05
4.93204e-05
-4.37366e-05
5.98701e-05
-6.05981e-05
6.92213e-05
-7.94691e-05
7.75312e-05
-0.000100123
8.49567e-05
-0.000122368
9.16489e-05
-0.000146046
9.77463e-05
-0.000171024
0.000103366
-0.000197192
0.000108598
-0.000224452
0.000113498
-0.000252707
0.000118083
-0.000281857
0.000122333
-0.000311781
0.000126193
-0.000342336
0.000129585
-0.000373347
0.000132426
-0.000404612
0.000134667
-0.000435913
0.000136347
-0.000467052
0.000137683
-0.000497923
0.000139188
-0.000528644
0.000141778
-0.000559639
0.00014657
0.000155476
-0.000591816
-2.10161e-06
1.10511e-05
-7.76112e-06
2.96696e-05
-1.65972e-05
4.62524e-05
-2.82546e-05
6.09778e-05
-4.24051e-05
7.40206e-05
-5.87509e-05
8.55671e-05
-7.7026e-05
9.58063e-05
-9.69974e-05
0.000104928
-0.000118464
0.000113116
-0.000141255
0.000120537
-0.000165225
0.000127336
-0.000190245
0.000133619
-0.0002162
0.000139453
-0.000242974
0.000144856
-0.000270443
0.000149801
-0.000298462
0.000154212
-0.000326858
0.000157981
-0.000355417
0.000160985
-0.00038388
0.00016313
-0.000411948
0.000164415
-0.000439305
0.00016504
-0.000465679
0.000165563
-0.000490999
0.000167098
-0.000515542
0.000171113
0.000179926
-0.000539991
-2.01409e-06
1.30652e-05
-7.45116e-06
3.51067e-05
-1.59495e-05
5.47508e-05
-2.71662e-05
7.21946e-05
-4.07791e-05
8.76335e-05
-5.64909e-05
0.000101279
-7.40316e-05
0.000113347
-9.31597e-05
0.000124056
-0.000113663
0.000133619
-0.000135354
0.000142229
-0.00015807
0.000150051
-0.000181661
0.00015721
-0.000205988
0.00016378
-0.00023091
0.000169778
-0.000256273
0.000175165
-0.000281903
0.000179842
-0.000307587
0.000183665
-0.000333064
0.000186462
-0.000358011
0.000188077
-0.000382037
0.00018844
-0.000404686
0.000187689
-0.000425487
0.000186364
-0.000444121
0.000185731
-0.000460669
0.000187661
0.000194674
-0.000475418
-1.9131e-06
1.49783e-05
-7.09245e-06
4.0286e-05
-1.51981e-05
6.28564e-05
-2.59003e-05
8.28968e-05
-3.88833e-05
0.000100616
-5.38497e-05
0.000116245
-7.0524e-05
0.000130021
-8.86548e-05
0.000142187
-0.000108015
0.000152979
-0.000128399
0.000162613
-0.00014962
0.000171272
-0.000171504
0.000179094
-0.000193883
0.000186158
-0.000216581
0.000192477
-0.000239412
0.000197996
-0.00026216
0.00020259
-0.000284567
0.000206072
-0.000306319
0.000208213
-0.000327019
0.000208778
-0.000346175
0.000207596
-0.000363183
0.000204696
-0.000377344
0.000200525
-0.000388029
0.000196416
-0.000395089
0.000194722
0.000197709
-0.000398124
-1.80072e-06
1.6779e-05
-6.69179e-06
4.51771e-05
-1.43561e-05
7.05207e-05
-2.44775e-05
9.30183e-05
-3.67462e-05
0.000112885
-5.08637e-05
0.000130363
-6.65479e-05
0.000145705
-8.35348e-05
0.000159174
-0.00010158
0.000171023
-0.000120455
0.000181488
-0.000139947
0.000190765
-0.000159852
0.000198999
-0.000179963
0.000206269
-0.000200068
0.000212582
-0.000219934
0.000217862
-0.000239299
0.000221954
-0.00025785
0.000224623
-0.000275208
0.000225572
-0.000290901
0.00022447
-0.000304327
0.000221023
-0.00031473
0.000215099
-0.000321172
0.000206968
-0.000322651
0.000197895
-0.000318769
0.00019084
0.00018699
-0.00030805
-1.67922e-06
1.84582e-05
-6.25667e-06
4.97546e-05
-1.34381e-05
7.77022e-05
-2.29208e-05
0.000102501
-3.43995e-05
0.000124364
-4.75739e-05
0.000143537
-6.21528e-05
0.000160284
-7.78577e-05
0.000174879
-9.44234e-05
0.000187589
-0.000111596
0.000198661
-0.000129132
0.0002083
-0.000146787
0.000216654
-0.000164315
0.000223797
-0.000181455
0.000229722
-0.000197921
0.000234328
-0.00021339
0.000237424
-0.000227486
0.000238719
-0.000239754
0.00023784
-0.000249634
0.000234351
-0.000256417
0.000227806
-0.000259192
0.000217874
-0.000256787
0.000204563
-0.000247765
0.000188873
-0.000231525
0.0001746
0.000160517
-0.000205053
-1.55104e-06
2.00093e-05
-5.79517e-06
5.39987e-05
-1.24601e-05
8.43671e-05
-2.12547e-05
0.000111296
-3.18776e-05
0.000134987
-4.40242e-05
0.000155684
-5.73925e-05
0.000173653
-7.16867e-05
0.000189173
-8.66179e-05
0.00020252
-0.000101902
0.000213946
-0.000117259
0.000223657
-0.000132401
0.000231796
-0.000147033
0.000238428
-0.000160835
0.000243524
-0.000173458
0.000246951
-0.000184506
0.000248472
-0.000193523
0.000247736
-0.000199966
0.000244283
-0.000203175
0.00023756
-0.000202324
0.000226955
-0.000196349
0.0002119
-0.000183871
0.000192084
-0.000162915
0.000167917
-0.000132826
0.000144511
0.000117003
-8.93113e-05
-1.41876e-06
2.1428e-05
-5.31572e-06
5.78957e-05
-1.14383e-05
9.04897e-05
-1.95053e-05
0.000119363
-2.92164e-05
0.000144698
-4.02608e-05
0.000166728
-5.23234e-05
0.000185715
-6.50878e-05
0.000201938
-7.8238e-05
0.00021567
-9.14561e-05
0.000227164
-0.000104418
0.000236619
-0.000116789
0.000244167
-0.000128212
0.000249851
-0.000138301
0.000253613
-0.00014663
0.00025528
-0.000152715
0.000254557
-0.000156002
0.000251022
-0.00015584
0.000244121
-0.00015145
0.00023317
-0.000141876
0.00021738
-0.000125898
0.000195922
-0.000101989
0.000168175
-6.75507e-05
0.000133479
-2.00007e-05
9.69609e-05
5.73509e-05
3.96515e-05
-1.28496e-06
2.2713e-05
-4.82689e-06
6.14376e-05
-1.03897e-05
9.60525e-05
-1.76989e-05
0.000126672
-2.64525e-05
0.000153451
-3.6331e-05
0.000176607
-4.70026e-05
0.000196387
-5.8128e-05
0.000213063
-6.93597e-05
0.000226902
-8.03406e-05
0.000238145
-9.06991e-05
0.000246977
-0.000100041
0.000253509
-0.000107944
0.000257754
-0.000113941
0.00025961
-0.000117513
0.000258852
-0.000118072
0.000255117
-0.000114944
0.000247894
-0.000107345
0.000236522
-9.43517e-05
0.000220177
-7.48532e-05
0.000197882
-4.74548e-05
0.000168524
-1.04631e-05
0.000131183
3.8761e-05
8.42551e-05
0.000102604
3.31181e-05
-2.74026e-05
0.000187357
-1.15221e-06
2.38652e-05
-4.33716e-06
6.46225e-05
-9.33082e-06
0.000101046
-1.58614e-05
0.000133202
-2.36222e-05
0.000161212
-3.2281e-05
0.000185265
-4.14867e-05
0.000205593
-5.08728e-05
0.000222449
-6.00564e-05
0.000236086
-6.8636e-05
0.000246724
-7.61852e-05
0.000254526
-8.22445e-05
0.000259568
-8.63111e-05
0.00026182
-8.78268e-05
0.000261126
-8.61635e-05
0.000257189
-8.06073e-05
0.00024956
-7.03391e-05
0.000237626
-5.44123e-05
0.000220595
-3.17236e-05
0.000197488
-9.75109e-07
0.000167133
3.94308e-05
0.000128118
9.12608e-05
7.93529e-05
0.000157965
1.75506e-05
0.000240514
-4.94305e-05
-0.000137425
0.000350537
-1.02301e-06
2.48882e-05
-3.85464e-06
6.74542e-05
-8.27751e-06
0.000105469
-1.40179e-05
0.000138943
-2.07598e-05
0.000167954
-2.81549e-05
0.000192661
-3.58289e-05
0.000213267
-4.33836e-05
0.000230004
-5.03962e-05
0.000243098
-5.64145e-05
0.000252743
-6.09501e-05
0.000259062
-6.34682e-05
0.000262086
-6.33755e-05
0.000261727
-6.0006e-05
0.000257756
-5.26044e-05
0.000249787
-4.03077e-05
0.000237264
-2.21243e-05
0.000219443
3.08989e-06
0.000195381
3.66593e-05
0.000163919
8.01125e-05
0.00012368
0.000135314
7.29165e-05
0.000204106
1.05606e-05
0.000290518
-6.8861e-05
0.000394649
-0.000153561
-0.000274932
0.000532155
-8.9963e-07
2.57879e-05
-3.38686e-06
6.99414e-05
-7.24441e-06
0.000109327
-1.2191e-05
0.000143889
-1.78968e-05
0.00017366
-2.39928e-05
0.000198757
-3.00767e-05
0.000219351
-3.57143e-05
0.000235641
-4.04369e-05
0.000247821
-4.37351e-05
0.000256041
-4.505e-05
0.000260377
-4.37606e-05
0.000260797
-3.91698e-05
0.000257137
-3.04871e-05
0.000249073
-1.68092e-05
0.000236109
2.90119e-06
0.000217553
2.98392e-05
0.000192505
6.53827e-05
0.000159837
0.00011112
0.000118181
0.000168857
6.59434e-05
0.000240795
9.78669e-07
0.000328846
-7.7491e-05
0.000437703
-0.000177717
0.000566196
-0.000282054
-0.000442614
0.000733878
-7.84129e-07
2.6572e-05
-2.94044e-06
7.20977e-05
-6.24435e-06
0.00011263
-1.04008e-05
0.000148046
-1.50604e-05
0.00017832
-1.98284e-05
0.000203524
-2.42695e-05
0.000223792
-2.79079e-05
0.00023928
-3.02223e-05
0.000250135
-3.06383e-05
0.000256457
-2.85164e-05
0.000258255
-2.31375e-05
0.000255418
-1.3685e-05
0.000247684
7.74863e-07
0.000234614
2.13165e-05
0.000215568
4.91789e-05
0.000189691
8.57926e-05
0.000155891
0.000132806
0.000112824
0.000192113
5.88736e-05
0.000265837
-7.78039e-06
0.000356568
-8.97527e-05
0.000466333
-0.000187255
0.000600475
-0.000311859
0.000756318
-0.000437897
-0.000643182
0.000956885
-6.7822e-07
2.72502e-05
-2.52086e-06
7.39404e-05
-5.28773e-06
0.000115397
-8.66303e-06
0.000151421
-1.22716e-05
0.000181928
-1.56871e-05
0.00020694
-1.84355e-05
0.00022654
-1.99924e-05
0.000240836
-1.97767e-05
0.00024992
-1.71393e-05
0.000253819
-1.13486e-05
0.000252464
-1.57269e-06
0.000245642
1.31418e-05
0.00023297
3.38937e-05
0.000213862
6.19532e-05
0.000187508
9.87906e-05
0.000152853
0.000146104
0.000108578
0.000205844
5.30837e-05
0.000280247
-1.55296e-05
0.000371777
-9.93101e-05
0.000483426
-0.000201401
0.000617403
-0.000321233
0.000779535
-0.000473991
0.000965676
-0.000624038
-0.000878949
0.00120144
-5.83212e-07
2.78334e-05
-2.13214e-06
7.54893e-05
-4.38203e-06
0.000117647
-6.98862e-06
0.000154028
-9.54417e-06
0.000184484
-1.15842e-05
0.00020898
-1.25888e-05
0.000227545
-1.19776e-05
0.000240225
-9.10021e-06
0.000247042
-3.22168e-06
0.000247941
6.49532e-06
0.000242747
2.10123e-05
0.000231125
4.144e-05
0.000212542
6.90658e-05
0.000186236
0.000105384
0.00015119
0.000152124
0.000106113
0.000211282
4.94198e-05
0.000285139
-2.07733e-05
0.000376287
-0.000106677
0.000487538
-0.000210562
0.000622207
-0.00033607
0.000782801
-0.000481827
0.000975187
-0.000666377
0.00119412
-0.000842969
-0.0011512
0.00146636
-4.99937e-07
2.83333e-05
-1.77665e-06
7.6766e-05
-3.5312e-06
0.000119402
-5.38263e-06
0.000155879
-6.88303e-06
0.000185984
-7.52234e-06
0.000209619
-6.72676e-06
0.000226749
-3.85073e-06
0.000237349
1.83643e-06
0.000241355
1.11687e-05
0.000238609
2.51055e-05
0.00022881
4.47575e-05
0.000211473
7.14157e-05
0.000185884
0.000106582
0.000151069
0.000152003
0.00010577
0.000209696
4.84198e-05
0.000281978
-2.28621e-05
0.000371471
-0.000110266
0.000481109
-0.000216315
0.000614034
-0.000343487
0.000773688
-0.000495723
0.000962979
-0.000671118
0.0011871
-0.000890501
0.00144034
-0.0010962
-0.00145936
0.0017485
-4.28683e-07
2.8762e-05
-1.45485e-06
7.77922e-05
-2.73525e-06
0.000120682
-3.8434e-06
0.000156987
-4.28299e-06
0.000186424
-3.48985e-06
0.000208826
-8.27007e-07
0.000224086
4.42704e-06
0.000232095
1.30963e-05
0.000232686
2.61297e-05
0.000225575
4.46275e-05
0.000210313
6.98719e-05
0.000186229
0.000103359
0.000152396
0.000146834
0.000107594
0.000202321
5.02835e-05
0.000272147
-2.14062e-05
0.000358958
-0.000109674
0.000465706
-0.000217013
0.000595612
-0.000346221
0.000752075
-0.000499951
0.000938362
-0.00068201
0.00115778
-0.000890535
0.00141397
-0.00114669
0.00170147
-0.00138371
-0.00180027
0.00204238
-3.69142e-07
2.91312e-05
-1.16509e-06
7.85881e-05
-1.98977e-06
0.000121507
-2.36188e-06
0.000157359
-1.72757e-06
0.000185789
5.40959e-07
0.000206558
5.15437e-06
0.000219473
1.29233e-05
0.000224326
2.47802e-05
0.000220829
4.1807e-05
0.000208548
6.52666e-05
0.000186853
9.66373e-05
0.000154858
0.000137648
0.000111386
0.00019031
5.49321e-05
0.000256947
-1.63535e-05
0.000340206
-0.000104665
0.000443048
-0.000212516
0.000568703
-0.000342668
0.000720559
-0.000498077
0.000902126
-0.000681518
0.00111613
-0.000896013
0.00136603
-0.00114043
0.00165304
-0.0014337
0.00197274
-0.00170341
-0.0021677
0.00234017
-3.20363e-07
2.94515e-05
-9.03476e-07
7.91712e-05
-1.28569e-06
0.000121889
-9.21013e-07
0.000156995
8.11715e-07
0.000184057
4.61455e-06
0.000202755
1.12849e-05
0.000212803
2.17366e-05
0.000213875
3.70284e-05
0.000205537
5.83963e-05
0.000187181
8.72894e-05
0.00015796
0.000125408
0.00011674
0.000174737
6.20569e-05
0.000237578
-7.90892e-06
0.000316562
-9.53372e-05
0.00041464
-0.000202743
0.00053504
-0.000332916
0.000681163
-0.000488791
0.000856374
-0.000673288
0.00106402
-0.000889165
0.00130593
-0.00113792
0.00158515
-0.00141966
0.00189981
-0.00174836
0.00224719
-0.00205079
-0.00255251
0.002632
-2.80734e-07
2.97323e-05
-6.63801e-07
7.95543e-05
-6.0912e-07
0.000121834
5.04427e-07
0.000155881
3.3757e-06
0.000181185
8.79374e-06
0.000197337
1.76561e-05
0.00020394
3.09973e-05
0.000200533
5.00219e-05
0.000186512
7.61428e-05
0.00016106
0.00011102
0.000123082
0.000156601
7.11594e-05
0.000215148
3.50982e-06
0.00028926
-8.20213e-05
0.000381865
-0.000187942
0.00049617
-0.000317049
0.000635566
-0.000472311
0.000803449
-0.000656675
0.00100289
-0.000872732
0.00123667
-0.00112294
0.0015054
-0.00140666
0.00181091
-0.00172517
0.00214795
-0.00208539
0.0025159
-0.00241874
-0.00294355
0.00290694
-2.4799e-07
2.99803e-05
-4.37543e-07
7.97439e-05
5.95826e-08
0.000121337
1.94766e-06
0.000153993
6.01798e-06
0.000177115
1.31586e-05
0.000190196
2.43835e-05
0.000192715
4.08664e-05
0.000184051
6.39797e-05
0.000163399
9.5337e-05
0.000129702
0.000136834
8.15851e-05
0.000190684
1.73096e-05
0.000259438
-6.52447e-05
0.000345985
-0.000168568
0.000453502
-0.000295459
0.000585361
-0.000448908
0.000744943
-0.000631893
0.000935383
-0.000847115
0.00115912
-0.00109647
0.00141781
-0.00138163
0.00171068
-0.00169952
0.00203738
-0.00205187
0.00238955
-0.00243756
0.00276873
-0.00279792
-0.00332905
0.00315423
-2.19195e-07
3.01995e-05
-2.14209e-07
7.97389e-05
7.41132e-07
0.000120382
3.44987e-06
0.000151284
8.80372e-06
0.000171761
1.7806e-05
0.000181194
3.16046e-05
0.000178917
5.1533e-05
0.000164122
7.91541e-05
0.000135778
0.000116306
9.25509e-05
0.000165139
3.27517e-05
0.000228146
-4.56977e-05
0.000308161
-0.00014526
0.000408322
-0.000268728
0.000531972
-0.00041911
0.000682488
-0.000599424
0.000863002
-0.000812407
0.00107604
-0.00106016
0.00132303
-0.00134345
0.00160394
-0.00166254
0.00191643
-0.00201201
0.0022573
-0.00239274
0.00261594
-0.0027962
0.00299556
-0.00317755
-0.00369818
0.00336469
-1.90803e-07
3.03903e-05
2.16559e-08
7.95264e-05
1.46576e-06
0.000118938
5.0594e-06
0.000147691
1.18087e-05
0.000165012
2.28473e-05
0.000170155
3.9476e-05
0.000162288
6.32091e-05
0.000140389
9.58225e-05
0.000103164
0.000139399
4.89749e-05
0.000196358
-2.42075e-05
0.000269468
-0.000118808
0.000361814
-0.000237606
0.000476708
-0.000383622
0.000617518
-0.00055992
0.000787403
-0.000769309
0.000988932
-0.00101394
0.00122362
-0.00129485
0.00149146
-0.00161129
0.00179032
-0.00196141
0.00211619
-0.00233788
0.00246278
-0.00273934
0.00281868
-0.00315209
0.00318779
-0.00354666
-0.0040423
0.00353191
-1.59401e-07
3.05497e-05
2.76617e-07
7.90904e-05
2.26267e-06
0.000116952
6.83025e-06
0.000143123
1.51175e-05
0.000156725
2.84059e-05
0.000156867
4.81686e-05
0.000142525
7.61222e-05
0.000112436
0.000114276
6.5011e-05
0.00016497
-1.71963e-06
0.000230897
-9.01339e-05
0.000315075
-0.000202986
0.000420775
-0.000343306
0.00055136
-0.000514207
0.000710021
-0.000718582
0.000899409
-0.000958697
0.00112116
-0.00123569
0.00137537
-0.00154906
0.00166022
-0.00189614
0.00197133
-0.00227251
0.00230298
-0.00266953
0.00264626
-0.00308261
0.00299071
-0.00349654
0.00333952
-0.00389547
-0.00435562
0.00365284
-1.20159e-07
3.06698e-05
5.74199e-07
7.8396e-05
3.1663e-06
0.00011436
8.82084e-06
0.000137469
1.88207e-05
0.000146725
3.46126e-05
0.000141075
5.78617e-05
0.000119276
9.05059e-05
7.97914e-05
0.000134803
2.07141e-05
0.000193357
-6.02741e-05
0.000269113
-0.00016589
0.00036529
-0.000299163
0.000485237
-0.000463253
0.000632189
-0.000661159
0.000808899
-0.000895292
0.00101717
-0.00116696
0.00125731
-0.00147583
0.00152766
-0.00181942
0.00182437
-0.00219284
0.00214092
-0.00258906
0.00247017
-0.00299878
0.00280158
-0.00341402
0.00312726
-0.00382222
0.00344809
-0.0042163
-0.00463533
0.0037278
-6.8958e-08
3.07388e-05
9.28137e-07
7.73989e-05
4.21176e-06
0.000111076
1.10922e-05
0.000130588
2.30124e-05
0.000134805
4.16017e-05
0.000122486
6.87353e-05
9.21424e-05
0.000106588
4.19382e-05
0.000157675
-3.03724e-05
0.000224853
-0.000127452
0.000311279
-0.000252316
0.000420282
-0.000408166
0.00055514
-0.000598111
0.000718724
-0.000824743
0.000913037
-0.0010896
0.00113867
-0.00139259
0.00139428
-0.00173144
0.00167622
-0.00210136
0.0019786
-0.00249523
0.00229333
-0.00290379
0.00261224
-0.00331769
0.00292478
-0.00372656
0.00322625
-0.00412369
0.00351405
-0.00450411
-0.00488159
0.00376031
2.69166e-09
3.07361e-05
1.35548e-06
7.60461e-05
5.43465e-06
0.000106997
1.37057e-05
0.000122317
2.77862e-05
0.000120724
4.95047e-05
0.000100767
8.09618e-05
6.06853e-05
0.00012458
-1.68001e-06
0.000183125
-8.89172e-05
0.000259678
-0.000204006
0.000357539
-0.000350176
0.000480018
-0.000530646
0.000630115
-0.000748208
0.000810059
-0.00100469
0.00102077
-0.00130031
0.00126128
-0.00163311
0.00152838
-0.00199854
0.00181645
-0.00238942
0.00211788
-0.00279666
0.00242373
-0.00320964
0.00272556
-0.00361952
0.00301446
-0.00401546
0.00328823
-0.00439746
0.0035403
-0.00475618
-0.00509964
0.00375835
9.10654e-08
3.0645e-05
1.87185e-06
7.42654e-05
6.86995e-06
0.000101999
1.67212e-05
0.000112466
3.32322e-05
0.000104213
5.84452e-05
7.55543e-05
9.46974e-05
2.44331e-05
0.000144659
-5.16417e-05
0.000211328
-0.000155586
0.000297957
-0.000290634
0.000407879
-0.000460099
0.000544217
-0.000666983
0.000709442
-0.000913433
0.000904834
-0.00120008
0.0011299
-0.00152538
0.00138191
-0.00188512
0.00165569
-0.00227232
0.00194393
-0.00267766
0.00223794
-0.00309067
0.00252875
-0.00350046
0.00280862
-0.00389938
0.00307141
-0.00427826
0.00331618
-0.00464223
0.00353634
-0.00497633
-0.00531129
0.00374799
2.07658e-07
3.04374e-05
2.4936e-06
7.19794e-05
8.55075e-06
9.59416e-05
2.01944e-05
0.000100822
3.9433e-05
8.49745e-05
6.8533e-05
4.64543e-05
0.000110073
-1.71069e-05
0.00016696
-0.000108528
0.000242384
-0.000231011
0.000339686
-0.000387936
0.000462093
-0.000582506
0.00061232
-0.00081721
0.000792036
-0.00109315
0.00100126
-0.00140931
0.00123785
-0.00176196
0.00149717
-0.00214444
0.00177234
-0.00254749
0.00205485
-0.00296017
0.00233571
-0.00337153
0.00260682
-0.00377156
0.00286197
-0.00415454
0.00309804
-0.00451433
0.00331428
-0.00485846
0.00351202
-0.00517408
-0.00549866
0.00369939
3.54267e-07
3.00831e-05
3.235e-06
6.90987e-05
1.05072e-05
8.86694e-05
2.41756e-05
8.71537e-05
4.64601e-05
6.269e-05
7.98585e-05
1.30559e-05
0.000127185
-6.44336e-05
0.000191558
-0.000172901
0.000276298
-0.000315752
0.000384719
-0.000496356
0.00051976
-0.000717547
0.000683484
-0.000980934
0.000876467
-0.00128613
0.00109721
-0.00163005
0.00134176
-0.00200651
0.00160375
-0.00240643
0.00187495
-0.0028187
0.00214638
-0.0032316
0.00240961
-0.00363476
0.0026581
-0.00402005
0.00288779
-0.00438423
0.00309796
-0.00472449
0.00328956
-0.00505007
0.00346656
-0.00535108
-0.00566539
0.00363328
5.34445e-07
2.95487e-05
4.10866e-06
6.55245e-05
1.27655e-05
8.00126e-05
2.87071e-05
7.12121e-05
5.43716e-05
3.70255e-05
9.24876e-05
-2.506e-05
0.00014609
-0.000118036
0.000218462
-0.000245273
0.000312969
-0.000410259
0.000432748
-0.000616135
0.000580238
-0.000865038
0.000756586
-0.00115728
0.000961008
-0.00149055
0.00119031
-0.00185935
0.00143878
-0.00225498
0.00169861
-0.00266626
0.00196087
-0.00308096
0.00221689
-0.00348761
0.00245951
-0.00387738
0.00268421
-0.00424475
0.00288921
-0.00458923
0.00307581
-0.00491109
0.0032464
-0.00522065
0.00340583
-0.00551051
-0.00581768
0.00355812
7.51247e-07
2.87974e-05
5.12531e-06
6.11504e-05
1.53474e-05
6.97905e-05
3.38223e-05
5.27372e-05
6.32088e-05
7.63902e-06
0.000106458
-6.83091e-05
0.000166795
-0.000178373
0.000247604
-0.000326083
0.000352177
-0.000514832
0.000483297
-0.000747255
0.000642668
-0.00102441
0.00083026
-0.00134487
0.00104373
-0.00170402
0.00127815
-0.00209378
0.00152627
-0.0025031
0.00177934
-0.00291933
0.00202846
-0.00333008
0.00226597
-0.00372512
0.00248654
-0.00409795
0.00268779
-0.004446
0.00287001
-0.00477145
0.00303601
-0.00507709
0.00318906
-0.0053737
0.00333437
-0.00565583
-0.00595837
0.00347507
1.00717e-06
2.77902e-05
6.29352e-06
5.5864e-05
1.82693e-05
5.78147e-05
3.95445e-05
3.14619e-05
7.29947e-05
-2.58112e-05
0.000121775
-0.000117089
0.000189255
-0.000245853
0.000278833
-0.00041566
0.000393581
-0.00062958
0.000535727
-0.000889401
0.000705995
-0.00119468
0.000902958
-0.00154184
0.00112261
-0.00192367
0.00135841
-0.00232958
0.00160198
-0.00274666
0.00184427
-0.00316162
0.00207709
-0.0035629
0.00229435
-0.00394238
0.00249276
-0.00429636
0.00267199
-0.00462523
0.00283397
-0.00493343
0.00298248
-0.0052256
0.00312118
-0.0055124
0.00325507
-0.00578973
-0.00608978
0.00338647
1.30416e-06
2.64861e-05
7.61965e-06
4.95486e-05
2.15424e-05
4.3892e-05
4.5886e-05
7.11834e-06
8.37321e-05
-6.36573e-05
0.000138409
-0.000171766
0.000213369
-0.000320813
0.00031191
-0.000514201
0.000436718
-0.000754388
0.000589243
-0.00104193
0.000769008
-0.00137444
0.000973034
-0.00174586
0.00119568
-0.00214632
0.00142909
-0.00256299
0.00166428
-0.00298185
0.00189258
-0.00338992
0.00210708
-0.0037774
0.00230356
-0.00413886
0.00248078
-0.00447358
0.0026401
-0.00478456
0.00278463
-0.00507795
0.00291856
-0.00535953
0.00304556
-0.00563939
0.00317015
-0.00591432
-0.00621353
0.0032939
1.64365e-06
2.48424e-05
9.10783e-06
4.20844e-05
2.51721e-05
2.78277e-05
5.28475e-05
-2.05571e-05
9.54027e-05
-0.000106212
0.000156296
-0.00023266
0.000238977
-0.000403495
0.000346511
-0.000621734
0.000481008
-0.000888885
0.000642925
-0.00120384
0.000830394
-0.00156191
0.00103884
-0.00195431
0.00126116
-0.00236864
0.00148861
-0.00279044
0.00171221
-0.00320544
0.00192425
-0.00360197
0.00211951
-0.00397266
0.00229572
-0.00431507
0.00245342
-0.00463128
0.00259527
-0.00492641
0.00272501
-0.00520769
0.00284691
-0.00548143
0.00296432
-0.00575681
0.00308118
-0.00603118
-0.0063307
0.00319835
2.0266e-06
2.28158e-05
1.076e-05
3.33509e-05
2.91585e-05
9.42921e-06
6.04182e-05
-5.18168e-05
0.000107966
-0.00015376
0.000175332
-0.000300026
0.000265861
-0.000494024
0.000382229
-0.000738102
0.000525772
-0.00103243
0.000695756
-0.00137383
0.000888807
-0.00175496
0.00109882
-0.00216432
0.00131755
-0.00258738
0.0015359
-0.00300879
0.00174548
-0.00341502
0.00193998
-0.00379647
0.00211603
-0.00414871
0.00227319
-0.00447223
0.00241343
-0.00477152
0.00254025
-0.00505322
0.00265763
-0.00532507
0.00276957
-0.00559337
0.002879
-0.00586624
0.00298921
-0.0061414
-0.00644199
0.00310051
2.45352e-06
2.03623e-05
1.25761e-05
2.32284e-05
3.34956e-05
-1.14903e-05
6.8575e-05
-8.68962e-05
0.00012136
-0.000206545
0.000195376
-0.000374042
0.000293744
-0.000592392
0.000418579
-0.000862936
0.000570248
-0.0011841
0.000746669
-0.00155025
0.000942943
-0.00195123
0.00115163
-0.002373
0.00136378
-0.00279953
0.00157047
-0.00321549
0.0017644
-0.00360895
0.00194095
-0.00397303
0.00209857
-0.00430632
0.00223836
-0.00461203
0.00236334
-0.00489649
0.00247739
-0.00516728
0.00258445
-0.00543213
0.00268807
-0.00569699
0.00279067
-0.00596885
0.00289497
-0.0062457
-0.00654782
0.00300081
2.92454e-06
1.74378e-05
1.45538e-05
1.15992e-05
3.81719e-05
-3.51085e-05
7.72824e-05
-0.000126007
0.000135498
-0.00026476
0.00021625
-0.000454795
0.000322296
-0.000698437
0.000455012
-0.000995652
0.000613623
-0.00134271
0.000794603
-0.00173123
0.000991611
-0.00214824
0.00119619
-0.00257759
0.00139917
-0.00300251
0.00159233
-0.00340865
0.0017698
-0.00378641
0.00192872
-0.00413194
0.00206917
-0.00444677
0.0021935
-0.00473636
0.00230532
-0.00500831
0.0024086
-0.00527056
0.00250697
-0.0055305
0.00260349
-0.00579351
0.00270009
-0.00606545
0.00279894
-0.00634455
-0.00664844
0.00289956
3.43937e-06
1.39984e-05
1.66886e-05
-1.6501e-06
4.31699e-05
-6.15897e-05
8.64923e-05
-0.000169329
0.000150271
-0.000328539
0.000237739
-0.000542263
0.000351137
-0.000811834
0.00049093
-0.00113545
0.00065506
-0.00150684
0.000838548
-0.00191472
0.00103381
-0.0023435
0.00123176
-0.00277554
0.00142351
-0.00319426
0.00160195
-0.00358709
0.00176282
-0.00394728
0.00190496
-0.00427409
0.00202984
-0.00457165
0.00214062
-0.00484714
0.00224118
-0.00510887
0.00233535
-0.00536473
0.00242632
-0.00562147
0.00251661
-0.0058838
0.00260774
-0.00615657
0.00270143
-0.00643824
-0.00674398
0.00279696
3.99731e-06
1.00011e-05
1.8974e-05
-1.66268e-05
4.84658e-05
-9.10815e-05
9.61435e-05
-0.000217007
0.000165548
-0.000397944
0.000259593
-0.000636308
0.000379847
-0.000932088
0.000525706
-0.0012813
0.000693743
-0.00167487
0.000877606
-0.00209858
0.00106875
-0.00253464
0.00125793
-0.00296472
0.00143696
-0.00337328
0.00160012
-0.00375025
0.00174483
-0.00409199
0.00187142
-0.00440068
0.0019824
-0.00468263
0.00208143
-0.00494617
0.00217239
-0.00519983
0.00225877
-0.00545111
0.00234329
-0.00570598
0.00242798
-0.00596849
0.00251399
-0.00624258
0.00260267
-0.00652692
-0.00683447
0.00269316
4.59721e-06
5.40387e-06
2.1401e-05
-3.34306e-05
5.40295e-05
-0.00012371
0.000106162
-0.000269139
0.000181175
-0.000472958
0.000281534
-0.000736667
0.000407978
-0.00105853
0.000558706
-0.00143203
0.000728907
-0.00184508
0.000911027
-0.0022807
0.00109593
-0.00271954
0.00127462
-0.00314342
0.00144
-0.00353866
0.00158789
-0.00389814
0.00171727
-0.00422137
0.00182973
-0.00451313
0.00192847
-0.00478138
0.00201737
-0.00503507
0.00210009
-0.00528256
0.00217971
-0.00553072
0.00225846
-0.00578474
0.00233797
-0.006048
0.00241906
-0.00632368
0.00250281
-0.00661067
-0.00691995
0.00258828
5.23736e-06
1.66513e-07
2.39578e-05
-5.2151e-05
5.98241e-05
-0.000159576
0.00011646
-0.000325774
0.000196978
-0.000553476
0.000303256
-0.000842945
0.000435063
-0.00119034
0.000589317
-0.00158629
0.000759879
-0.00201564
0.000938248
-0.00245907
0.00111508
-0.00289638
0.00128206
-0.00331039
0.00143338
-0.00368998
0.00156643
-0.0040312
0.00168159
-0.00433652
0.00178138
-0.00461292
0.00186943
-0.00486944
0.00194958
-0.00511521
0.00202516
-0.00535814
0.00209878
-0.00560434
0.00217226
-0.00585822
0.00224684
-0.00612258
0.00232314
-0.00639998
0.00240198
-0.00668951
-0.00700038
0.00248242
5.91539e-06
-5.74887e-06
2.663e-05
-7.28655e-05
6.58058e-05
-0.000198752
0.000126937
-0.000386906
0.000212763
-0.000639302
0.000324438
-0.00095462
0.000460639
-0.00132654
0.000616969
-0.00174262
0.000786104
-0.00218477
0.000958903
-0.00263187
0.00112621
-0.00306369
0.0012807
-0.00346487
0.00141799
-0.00382727
0.00153695
-0.00415016
0.00163912
-0.00443869
0.00172768
-0.00470148
0.00180642
-0.00494818
0.00187896
-0.00518775
0.00194825
-0.00542742
0.00201644
-0.00567253
0.00208497
-0.00592675
0.00215479
-0.0061924
0.00222635
-0.00647153
0.00230028
-0.00676344
-0.00707575
0.00237565
6.62833e-06
-1.23772e-05
2.94001e-05
-9.56373e-05
7.19237e-05
-0.000241276
0.000137482
-0.000452464
0.000228323
-0.000730143
0.00034475
-0.00107105
0.000484257
-0.00146605
0.000641165
-0.00189952
0.000807166
-0.00235078
0.000972828
-0.00279753
0.00112954
-0.0032204
0.00127117
-0.0036065
0.00139481
-0.00395091
0.00150064
-0.004256
0.0015911
-0.00452915
0.00166976
-0.00478013
0.00174037
-0.00501879
0.00180622
-0.00525361
0.00186985
-0.00549105
0.001933
-0.00573568
0.0019968
-0.00599055
0.00206196
-0.00625756
0.0021288
-0.00653837
0.0021978
-0.00683244
-0.00714603
0.00226807
7.37234e-06
-1.97495e-05
3.22478e-05
-0.000120513
7.81206e-05
-0.000287149
0.000147972
-0.000522315
0.000243442
-0.000825614
0.000363865
-0.00119147
0.000505504
-0.00160769
0.000661492
-0.00205551
0.000822799
-0.00251208
0.000980043
-0.00295477
0.00112546
-0.00336581
0.00125422
-0.00373526
0.00136484
-0.00406154
0.00145861
-0.00434977
0.0015386
-0.00460913
0.00160853
-0.00485006
0.00167199
-0.00508225
0.00173188
-0.0053135
0.00179033
-0.0055495
0.00184872
-0.00579408
0.00190792
-0.00604975
0.00196846
-0.0063181
0.00203057
-0.00660048
0.00209461
-0.00689648
-0.00721118
0.00215976
8.14276e-06
-2.78923e-05
3.51493e-05
-0.000147519
8.43327e-05
-0.000336332
0.000158276
-0.000596258
0.000257897
-0.000925235
0.000381466
-0.00131504
0.000524016
-0.00175024