/*--------------------------------*- C++ -*----------------------------------*\
  =========                 |
  \\      /  F ield         | OpenFOAM: The Open Source CFD Toolbox
   \\    /   O peration     | Website:  https://openfoam.org
    \\  /    A nd           | Version:  7
     \\/     M anipulation  |
\*---------------------------------------------------------------------------*/
FoamFile
{
    version     2.0;
    format      ascii;
    class       volVectorField;
    location    "45";
    object      U;
}
// * * * * * * * * * * * * * * * * * * * * * * * * * * * * * * * * * * * * * //

dimensions      [0 1 -1 0 0 0 0];

internalField   nonuniform List<vector> 
31800
(
(-0.000522414 0.000513455 -9.44062e-21)
(-0.00323853 0.00128904 6.51857e-21)
(-0.0086706 0.00186683 -2.12294e-21)
(-0.0156961 0.00228688 9.42649e-21)
(-0.0238792 0.002577 1.05266e-20)
(-0.0328607 0.00276172 -3.448e-21)
(-0.0423247 0.00286256 -2.4913e-21)
(-0.0520251 0.00289793 1.76124e-20)
(-0.0617715 0.0028833 -2.00523e-21)
(-0.071419 0.00283134 2.87919e-21)
(-0.0808599 0.00275206 9.87026e-21)
(-0.0900156 0.00265294 9.6599e-21)
(-0.098828 0.00253924 -6.09578e-21)
(-0.107254 0.00241431 -7.57074e-21)
(-0.115256 0.00228001 -2.58275e-22)
(-0.122805 0.00213721 -9.64817e-21)
(-0.129869 0.00198644 7.48834e-21)
(-0.13642 0.00182862 1.26104e-20)
(-0.142433 0.00166609 -4.71003e-21)
(-0.147894 0.00150365 2.13203e-20)
(-0.152809 0.0013498 1.34858e-21)
(-0.157223 0.00121765 -1.7165e-21)
(-0.161235 0.00112362 3.74376e-21)
(-0.164971 0.00108219 7.60886e-21)
(-0.168671 0.0011189 4.72404e-21)
(-0.000572038 0.0015414 9.71989e-21)
(-0.00334963 0.00387161 5.31877e-21)
(-0.00880452 0.00560946 -5.72691e-21)
(-0.0158266 0.0068743 -2.17546e-20)
(-0.0239857 0.00774921 1.60583e-20)
(-0.0329263 0.00830753 -7.85598e-21)
(-0.0423358 0.00861381 4.32976e-22)
(-0.0519702 0.00872326 -1.35074e-20)
(-0.0616406 0.00868241 2.81523e-21)
(-0.0712031 0.00852941 1.91174e-21)
(-0.0805506 0.00829437 -4.14439e-20)
(-0.0896046 0.00799987 -6.99463e-22)
(-0.0983072 0.00766176 4.63271e-20)
(-0.106615 0.00729011 -2.3277e-20)
(-0.114491 0.00689046 -4.40601e-21)
(-0.121903 0.00646536 9.57601e-21)
(-0.128822 0.00601616 -2.00983e-20)
(-0.135216 0.00554535 -1.00463e-21)
(-0.141059 0.00505942 1.98036e-20)
(-0.146334 0.00457227 -7.25372e-20)
(-0.151042 0.00410872 -2.24602e-20)
(-0.155222 0.00370768 3.39269e-20)
(-0.158969 0.00341885 1.67091e-20)
(-0.162397 0.00328696 2.96711e-21)
(-0.165732 0.00338975 -6.71799e-21)
(-0.000670495 0.0025537 -2.01468e-20)
(-0.00357023 0.00641786 -5.5146e-22)
(-0.00907064 0.00930305 -2.73739e-20)
(-0.0160863 0.0114052 4.08315e-20)
(-0.0241975 0.0128609 -4.62278e-20)
(-0.0330567 0.0137914 -4.31932e-21)
(-0.0423574 0.0143032 -4.19384e-21)
(-0.0518601 0.0144879 7.66551e-21)
(-0.0613787 0.0144225 2.53674e-20)
(-0.0707712 0.0141705 -4.30684e-21)
(-0.0799318 0.013782 -7.59771e-21)
(-0.0887823 0.0132945 2.73611e-20)
(-0.0972649 0.0127346 -4.81548e-21)
(-0.105335 0.0121191 2.65702e-20)
(-0.112957 0.0114572 -5.37494e-20)
(-0.120097 0.0107531 -2.19578e-20)
(-0.126723 0.0100086 3.53625e-21)
(-0.132803 0.00922732 -7.18966e-20)
(-0.138306 0.00841892 1.96222e-20)
(-0.143208 0.00760518 4.41841e-20)
(-0.147501 0.00682601 -2.78838e-20)
(-0.151213 0.00614552 -6.70331e-20)
(-0.154429 0.0056484 -3.34147e-20)
(-0.157242 0.00541473 -6.23022e-20)
(-0.159847 0.00557877 -3.40535e-20)
(-0.00081609 0.00354029 9.38132e-21)
(-0.00389691 0.00890432 -1.56298e-20)
(-0.00946525 0.0129157 4.97244e-20)
(-0.0164717 0.0158425 -3.97797e-20)
(-0.024512 0.0178726 -1.03581e-20)
(-0.0332503 0.0191726 -2.75203e-21)
(-0.0423889 0.01989 3.25521e-20)
(-0.0516948 0.0201515 2.30767e-20)
(-0.0609864 0.0200643 -4.07548e-20)
(-0.0701244 0.0197165 1.70837e-20)
(-0.0790046 0.0191781 1.04327e-21)
(-0.0875496 0.0185016 -7.69557e-20)
(-0.0957014 0.0177242 -2.52532e-20)
(-0.103415 0.0168695 2.04671e-21)
(-0.110654 0.0159505 1.68261e-20)
(-0.117383 0.0149729 7.66465e-20)
(-0.123567 0.0139385 8.49741e-21)
(-0.129172 0.0128512 7.25547e-20)
(-0.134161 0.0117225 7.24247e-20)
(-0.138502 0.0105799 -8.92956e-21)
(-0.142173 0.00947621 3.25234e-20)
(-0.145183 0.00849942 -1.24366e-20)
(-0.147606 0.0077715 4.12407e-20)
(-0.1495 0.00741624 1.37405e-19)
(-0.150997 0.00763127 2.14401e-20)
(-0.00100635 0.00449165 1.59614e-20)
(-0.00432467 0.0113086 -5.80545e-20)
(-0.0099829 0.016417 7.49071e-20)
(-0.016978 0.0201508 2.76066e-20)
(-0.0249255 0.0227456 2.16363e-20)
(-0.0335045 0.0244113 2.301e-20)
(-0.0424291 0.025334 -1.22389e-19)
(-0.0514743 0.0256743 4.5506e-20)
(-0.0604643 0.0255687 4.73355e-20)
(-0.0692638 0.0251294 -6.9936e-20)
(-0.0777703 0.0244458 7.24105e-20)
(-0.0859073 0.0235856 3.95936e-20)
(-0.0936168 0.0225964 4.89675e-20)
(-0.100853 0.0215089 -3.31642e-20)
(-0.107578 0.0203398 -7.35825e-21)
(-0.113754 0.0190962 1.61057e-19)
(-0.119345 0.0177798 -6.95287e-20)
(-0.124311 0.0163933 5.3858e-20)
(-0.128609 0.0149484 -1.30288e-19)
(-0.132197 0.0134755 -5.25324e-20)
(-0.135035 0.0120372 4.97922e-20)
(-0.137109 0.0107423 8.69565e-20)
(-0.138477 0.00975223 1.47323e-20)
(-0.139155 0.00924604 -1.13055e-19)
(-0.13915 0.00949256 -7.92729e-20)
(-0.0012381 0.00539903 -6.27884e-20)
(-0.00484705 0.01361 -2.0267e-20)
(-0.0106166 0.019778 -4.44309e-20)
(-0.0175988 0.0242961 -4.29982e-20)
(-0.0254332 0.0274431 3.08453e-20)
(-0.0338163 0.0294687 -5.51029e-20)
(-0.0424762 0.0305957 -3.57421e-20)
(-0.0511982 0.0310169 -1.77631e-19)
(-0.0598134 0.0308966 7.79112e-21)
(-0.0681906 0.0303708 -1.80728e-21)
(-0.0762302 0.0295479 -1.36165e-19)
(-0.0838565 0.0285102 -4.64359e-20)
(-0.091011 0.0273162 -5.76796e-20)
(-0.0976469 0.0260037 1.11575e-19)
(-0.103724 0.0245934 3.21752e-20)
(-0.109202 0.0230935 -8.78279e-20)
(-0.114042 0.0215052 -9.79697e-20)
(-0.1182 0.0198294 2.71667e-20)
(-0.121624 0.0180753 1.07508e-19)
(-0.124261 0.0162734 -2.3258e-20)
(-0.126052 0.0144911 -1.40488e-20)
(-0.126954 0.0128537 -6.62144e-20)
(-0.127003 0.0115621 -8.34531e-20)
(-0.126174 0.0108651 6.82004e-20)
(-0.124248 0.0111085 4.61815e-20)
(-0.00150757 0.00625459 3.25997e-20)
(-0.00545637 0.0157896 3.8328e-20)
(-0.0113578 0.0229725 -3.02234e-20)
(-0.0183267 0.0282469 -6.24961e-20)
(-0.026029 0.0319299 9.72706e-21)
(-0.0341814 0.0343078 7.33053e-20)
(-0.0425281 0.035637 1.05356e-19)
(-0.050866 0.0361407 1.43856e-19)
(-0.0590339 0.0360097 2.50898e-20)
(-0.0669062 0.0354028 3.3134e-20)
(-0.0743857 0.0344469 4.02038e-20)
(-0.0813976 0.0332388 1.53889e-19)
(-0.0878829 0.031848 -8.87286e-21)
(-0.0937931 0.0303194 -1.97359e-19)
(-0.0990848 0.0286779 1.42229e-19)
(-0.103716 0.0269334 5.65376e-20)
(-0.107642 0.025086 1.79083e-19)
(-0.110813 0.0231338 -7.3255e-20)
(-0.113171 0.0210818 -8.43711e-20)
(-0.11465 0.0189565 2.40625e-19)
(-0.115171 0.0168247 -8.08285e-20)
(-0.114657 0.0148214 -1.23355e-19)
(-0.113118 0.0131833 -3.29527e-20)
(-0.110506 0.0122449 -1.03582e-19)
(-0.1062 0.0124263 1.72525e-20)
(-0.00181052 0.0070516 8.1086e-21)
(-0.00614389 0.0178307 -1.59296e-20)
(-0.0121969 0.0259765 3.24949e-21)
(-0.0191527 0.031974 -1.13823e-19)
(-0.0267058 0.0361734 -8.83158e-20)
(-0.0345949 0.0388934 -1.66713e-20)
(-0.0425819 0.0404211 -4.30657e-20)
(-0.0504762 0.041008 -7.83418e-20)
(-0.0581259 0.0408699 -1.76476e-20)
(-0.0654109 0.0401872 -8.74638e-21)
(-0.072237 0.0391048 -8.29802e-20)
(-0.0785302 0.0377341 3.58779e-20)
(-0.0842303 0.0361549 2.69989e-20)
(-0.0892863 0.03442 1.44938e-19)
(-0.0936514 0.0325588 -2.95305e-21)
(-0.097279 0.0305828 -8.7668e-20)
(-0.10012 0.0284914 -9.53127e-21)
(-0.102117 0.0262791 3.7891e-20)
(-0.103204 0.0239453 1.55325e-19)
(-0.103302 0.0215087 -1.15325e-19)
(-0.102315 0.0190295 3.0364e-19)
(-0.100131 0.0166427 1.26589e-19)
(-0.0967204 0.0146122 -9.55483e-20)
(-0.0920648 0.0133737 1.84639e-19)
(-0.0848626 0.0133964 1.0709e-19)
(-0.00214235 0.00778453 9.93009e-21)
(-0.00690012 0.0197194 5.0318e-20)
(-0.0131234 0.0287693 1.4269e-19)
(-0.0200671 0.0354514 1.77751e-19)
(-0.0274556 0.0401436 1.0566e-19)
(-0.0350508 0.0431925 -7.41438e-20)
(-0.0426335 0.0449131 1.805e-19)
(-0.0500268 0.0455824 2.04545e-20)
(-0.0570883 0.0454399 -1.0773e-19)
(-0.0637042 0.0446863 1.18318e-20)
(-0.0697833 0.043484 1.99702e-19)
(-0.0752519 0.0419581 -2.13335e-19)
(-0.0800484 0.0401995 -1.21757e-19)
(-0.084118 0.0382686 -2.47251e-20)
(-0.0874092 0.0361997 -1.99547e-19)
(-0.0898697 0.0340066 -1.30016e-19)
(-0.091443 0.0316882 2.30459e-20)
(-0.0920649 0.0292355 -2.70653e-19)
(-0.0916598 0.0266412 2.70715e-20)
(-0.0901367 0.0239135 -1.29432e-19)
(-0.0873825 0.0210996 -1.60235e-19)
(-0.0832497 0.0183246 1.49165e-19)
(-0.0776554 0.0158626 1.67604e-19)
(-0.0707235 0.0142635 -1.30372e-19)
(-0.0600356 0.0139965 1.79269e-19)
(-0.00249829 0.00844917 -1.1941e-19)
(-0.00771507 0.0214441 8.75445e-20)
(-0.014126 0.0313335 -6.39538e-21)
(-0.0210592 0.0386565 3.4988e-20)
(-0.0282694 0.0438134 3.31047e-20)
(-0.0355422 0.0471748 1.48519e-19)
(-0.0426779 0.0490798 -1.07755e-19)
(-0.0495141 0.049829 -2.008e-19)
(-0.0559185 0.0496834 1.00568e-19)
(-0.0617836 0.0488631 9.38417e-20)
(-0.0670213 0.0475467 -3.16732e-19)
(-0.0715578 0.0458731 2.22668e-19)
(-0.0753288 0.0439437 3.37971e-19)
(-0.078275 0.0418271 2.3025e-20)
(-0.0803385 0.0395628 -5.95733e-20)
(-0.081459 0.0371677 1.70944e-19)
(-0.0815713 0.0346408 -7.88183e-20)
(-0.0806014 0.0319704 3.52952e-19)
(-0.0784626 0.0291422 -3.11097e-19)
(-0.0750512 0.0261524 5.65387e-20)
(-0.070239 0.0230301 -2.93385e-20)
(-0.0638485 0.0198807 -9.53864e-20)
(-0.055706 0.0169601 -9.24871e-20)
(-0.046281 0.0149255 7.61394e-20)
(-0.031486 0.0143326 1.95761e-20)
(-0.00287353 0.00904266 7.79804e-20)
(-0.0085785 0.0229966 -5.61196e-20)
(-0.0151928 0.0336548 4.63422e-20)
(-0.0221175 0.04157 -1.56121e-19)
(-0.0291371 0.0471591 -3.45079e-20)
(-0.0360606 0.0508126 1.75371e-20)
(-0.0427083 0.0528906 -3.96849e-20)
(-0.0489326 0.0537146 -6.56677e-20)
(-0.0546115 0.0535655 2.06519e-20)
(-0.0596438 0.0526811 -1.09687e-19)
(-0.0639442 0.0512557 2.04475e-19)
(-0.0674383 0.049441 -4.69837e-20)
(-0.0700579 0.0473493 -1.20024e-19)
(-0.0717377 0.045057 -1.22831e-19)
(-0.0724112 0.0426098 1.62604e-19)
(-0.0720079 0.0400281 8.81021e-20)
(-0.0704508 0.0373122 3.50639e-20)
(-0.0676532 0.0344487 -2.94299e-19)
(-0.0635147 0.0314176 3.06653e-19)
(-0.0579169 0.0282032 -1.00171e-19)
(-0.0507162 0.0248138 -4.66067e-20)
(-0.0417202 0.0213277 -3.60824e-20)
(-0.0305998 0.0179398 -3.99765e-20)
(-0.0183672 0.0153075 1.28857e-19)
(0.00102672 0.0146795 -2.10712e-19)
(-0.00326335 0.00956352 -2.89755e-20)
(-0.00948023 0.0243711 1.25187e-19)
(-0.016312 0.0357229 -1.78975e-19)
(-0.0232302 0.0441765 7.1768e-20)
(-0.0300477 0.0501605 3.95882e-20)
(-0.0365963 0.0540814 -5.99827e-20)
(-0.0427161 0.0563173 1.74766e-19)
(-0.0482742 0.0572083 4.24534e-20)
(-0.053159 0.057053 1.98907e-20)
(-0.0572756 0.0561055 1.71544e-19)
(-0.0605405 0.0545748 -7.02951e-20)
(-0.0628779 0.052625 7.43337e-20)
(-0.0642148 0.0503786 -7.90245e-20)
(-0.0644773 0.0479203 -5.01225e-21)
(-0.0635881 0.0453022 -8.61316e-20)
(-0.0614636 0.0425493 -2.97957e-19)
(-0.0580113 0.0396643 6.13631e-20)
(-0.0531277 0.0366338 2.37819e-19)
(-0.0466949 0.0334344 -8.20378e-20)
(-0.0385764 0.0300404 3.96808e-19)
(-0.0286086 0.0264395 -2.20071e-19)
(-0.0166139 0.0226797 -6.28831e-20)
(-0.00206891 0.0188758 -1.05635e-19)
(0.0135049 0.0155957 3.27292e-21)
(0.0380719 0.014882 -9.44576e-20)
(-0.0036633 0.0100116 -8.67389e-20)
(-0.0104103 0.025565 -1.29049e-19)
(-0.0174715 0.0375309 -6.93103e-20)
(-0.0243848 0.0464642 6.51594e-20)
(-0.0309888 0.052801 2.035e-20)
(-0.0371375 0.0569602 1.1755e-20)
(-0.0426898 0.0593351 4.49307e-20)
(-0.0475273 0.0602818 -2.18882e-19)
(-0.0515485 0.0601148 7.23657e-20)
(-0.0546639 0.0591033 -1.49867e-19)
(-0.0567916 0.0574695 -5.4322e-20)
(-0.0578529 0.0553894 -7.33291e-20)
(-0.0577678 0.0529953 -1.55267e-19)
(-0.0564522 0.0503803 3.19124e-19)
(-0.0538148 0.0476034 1.81004e-19)
(-0.0497549 0.0446946 4.868e-20)
(-0.0441605 0.0416608 1.51899e-19)
(-0.0369064 0.0384906 -2.19825e-19)
(-0.0278517 0.0351597 -5.4158e-20)
(-0.016838 0.0316369 -2.57906e-19)
(-0.00367074 0.0278929 9.93944e-20)
(0.0117867 0.0239525 2.18532e-19)
(0.0303162 0.0198334 9.99002e-20)
(0.0495862 0.0160506 -1.886e-19)
(0.0804559 0.0148234 2.35611e-19)
(-0.0040693 0.0103881 -3.09023e-20)
(-0.0113594 0.0265785 8.06848e-21)
(-0.0186596 0.0390755 8.77821e-20)
(-0.0255681 0.0484253 1.56707e-19)
(-0.0319471 0.0550679 -1.04887e-19)
(-0.0376703 0.0594315 1.01132e-19)
(-0.0426149 0.061922 -7.93406e-20)
(-0.046676 0.0629095 2.99746e-19)
(-0.0497614 0.0627227 -2.10102e-19)
(-0.0517867 0.061644 4.51978e-20)
(-0.0526699 0.0599079 1.95016e-19)
(-0.052328 0.0577013 -2.6904e-20)
(-0.0506719 0.0551661 2.0936e-20)
(-0.0476041 0.0524036 -2.59429e-19)
(-0.043016 0.0494799 -2.19855e-19)
(-0.0367858 0.0464314 -8.39066e-21)
(-0.0287769 0.04327 -2.42153e-19)
(-0.0188367 0.0399886 8.85932e-20)
(-0.00679496 0.0365655 -1.23385e-19)
(0.00753277 0.0329686 1.61442e-19)
(0.0243899 0.0291595 -2.17985e-19)
(0.0438187 0.0251494 1.30921e-19)
(0.0670604 0.0208428 -1.09392e-19)
(0.0903076 0.0167411 1.48149e-19)
(0.128803 0.0148805 -8.61651e-21)
(-0.00447777 0.0106953 1.69331e-19)
(-0.0123188 0.0274142 4.29492e-20)
(-0.0198645 0.0403568 -9.72191e-20)
(-0.0267666 0.0500557 -1.16671e-19)
(-0.0329072 0.0569521 7.87322e-20)
(-0.0381779 0.0614815 -2.88627e-19)
(-0.0424723 0.06406 4.11405e-19)
(-0.0456982 0.0650698 8.0021e-20)
(-0.0477719 0.0648518 1.32622e-19)
(-0.0486122 0.0637005 1.62036e-19)
(-0.048136 0.0618614 1.02114e-19)
(-0.0462533 0.0595314 -7.65101e-20)
(-0.0428635 0.0568616 -2.58179e-21)
(-0.0378525 0.0539614 -3.74128e-20)
(-0.03109 0.0509045 -1.11684e-19)
(-0.0224284 0.0477341 2.50255e-19)
(-0.0117012 0.0444689 5.10202e-19)
(0.0012776 0.041108 3.04098e-20)
(0.0167143 0.0376353 1.76038e-19)
(0.0348215 0.0340234 -9.15604e-20)
(0.0559191 0.0302336 1.10932e-19)
(0.0798633 0.026271 -6.51165e-19)
(0.108672 0.0219695 3.09212e-19)
(0.136156 0.0177031 1.90898e-19)
(0.183764 0.0153925 -1.2708e-19)
(-0.00488569 0.0109367 -1.01539e-19)
(-0.0132806 0.0280773 -1.74551e-19)
(-0.0210749 0.0413779 1.67446e-19)
(-0.027966 0.0513547 1.0968e-19)
(-0.0338519 0.0584487 5.89667e-20)
(-0.0386398 0.0631005 2.08734e-19)
(-0.0422379 0.0657351 -2.16599e-19)
(-0.0445653 0.0667449 -1.99722e-19)
(-0.0455448 0.0664816 -1.31098e-19)
(-0.0450971 0.0652502 -3.07785e-19)
(-0.0431354 0.0633062 5.95107e-20)
(-0.0395605 0.0608558 -2.42729e-20)
(-0.0342567 0.0580586 4.38617e-19)
(-0.027089 0.0550324 1.80609e-19)
(-0.0179013 0.0518585 1.29813e-19)
(-0.00651464 0.0485881 -4.07884e-20)
(0.00727294 0.0452478 -2.33856e-19)
(0.0236864 0.0418449 -1.89381e-19)
(0.0429745 0.0383726 -2.21576e-19)
(0.0653747 0.0348113 1.58669e-19)
(0.0913226 0.0311348 2.99122e-19)
(0.120344 0.0273328 3.34519e-19)
(0.155674 0.0232879 -3.15314e-19)
(0.187584 0.0189955 1.35816e-19)
(0.245929 0.0166505 1.82231e-19)
(-0.00529068 0.0111165 -2.67345e-19)
(-0.0142376 0.0285748 1.48808e-19)
(-0.0222796 0.0421448 -2.53776e-19)
(-0.029151 0.0523253 3.11847e-19)
(-0.0347616 0.0595563 -2.98006e-19)
(-0.0390315 0.0642829 -8.91997e-20)
(-0.0418813 0.0669375 -1.6619e-19)
(-0.0432394 0.0679216 9.34467e-20)
(-0.0430332 0.0675963 -1.59989e-19)
(-0.041183 0.0662758 1.7497e-19)
(-0.0375954 0.0642246 -2.29485e-19)
(-0.0321584 0.0616574 -1.70217e-19)
(-0.0247371 0.0587423 5.93096e-21)
(-0.0151713 0.055605 -2.61281e-19)
(-0.00327342 0.0523355 5.53483e-21)
(0.011172 0.0489937 -2.64436e-19)
(0.0284077 0.0456158 -1.62194e-20)
(0.0487019 0.0422193 -2.88424e-19)
(0.0723512 0.0388094 1.00817e-19)
(0.0996049 0.0353759 4.38856e-19)
(0.131064 0.0319256 -4.22161e-19)
(0.165722 0.0283815 2.07336e-19)
(0.208576 0.0249069 2.27761e-19)
(0.244983 0.0206779 -1.0925e-19)
(0.315668 0.0189231 4.3913e-20)
(-0.005691 0.0112396 1.38547e-19)
(-0.0151837 0.0289155 -3.90888e-20)
(-0.0234676 0.042666 8.60486e-20)
(-0.0303048 0.0529734 -2.50859e-19)
(-0.0356134 0.0602772 4.01954e-19)
(-0.0393229 0.0650271 2.62104e-20)
(-0.0413643 0.0676622 2.90517e-19)
(-0.0416723 0.068592 -1.51555e-19)
(-0.0401768 0.068186 1.02699e-19)
(-0.0367942 0.0667666 1.35105e-19)
(-0.0314211 0.0646065 1.23849e-19)
(-0.0239283 0.0619283 3.91837e-19)
(-0.0141572 0.0589082 -9.91561e-20)
(-0.00191659 0.0556809 -9.98569e-20)
(0.0130177 0.0523452 -7.82027e-20)
(0.0309032 0.0489712 -6.9411e-21)
(0.0520276 0.0456063 -1.64619e-19)
(0.0767037 0.0422804 1.45388e-19)
(0.105278 0.0390142 -1.95095e-19)
(0.137987 0.0358037 8.00925e-20)
(0.17565 0.0327249 -1.13781e-19)
(0.216473 0.0295134 1.46696e-20)
(0.267802 0.0269901 -5.33401e-19)
(0.308654 0.0228332 5.69139e-20)
(0.392961 0.0224383 -1.75355e-21)
(-0.00608551 0.0113114 1.84698e-19)
(-0.0161133 0.0291091 -1.2464e-19)
(-0.0246273 0.0429516 -8.78521e-20)
(-0.0314092 0.0533075 -5.30983e-20)
(-0.0363807 0.0606173 -1.73805e-19)
(-0.0394781 0.0653359 -2.93282e-19)
(-0.0406395 0.0679092 -9.57253e-20)
(-0.0398035 0.0687542 3.27443e-19)
(-0.0368988 0.0682478 -1.02257e-19)
(-0.0318343 0.06672 -2.21037e-19)
(-0.0244918 0.0644511 -1.33514e-19)
(-0.0147201 0.0616714 -4.00699e-19)
(-0.00233083 0.0585658 -4.36529e-19)
(0.0129034 0.0552778 3.27899e-19)
(0.0312491 0.051917 6.74463e-20)
(0.0530099 0.048565 5.39026e-20)
(0.0785205 0.0452823 5.63643e-19)
(0.108135 0.0421134 8.57843e-20)
(0.142244 0.0390986 5.40799e-19)
(0.181035 0.0362293 -6.47835e-19)
(0.225582 0.0337108 3.02946e-19)
(0.273047 0.0308908 -2.73943e-19)
(0.33358 0.0297508 4.2956e-19)
(0.378741 0.0256112 -6.44936e-19)
(0.477218 0.0273621 1.3412e-19)
(-0.00647361 0.0113374 -4.68386e-20)
(-0.0170212 0.0291664 -9.9549e-20)
(-0.0257469 0.0430136 -9.17363e-20)
(-0.0324432 0.0533384 3.12464e-20)
(-0.0370322 0.0605855 -4.92219e-20)
(-0.0394535 0.0652163 1.85672e-19)
(-0.0396492 0.0676838 -6.64928e-20)
(-0.0375583 0.0684124 -1.40363e-19)
(-0.0331039 0.0677863 -5.74826e-20)
(-0.026183 0.0661426 2.8907e-21)
(-0.0166573 0.0637688 3.68553e-19)
(-0.0043474 0.0609035 -3.23374e-19)
(0.0109705 0.0577403 4.70313e-19)
(0.0295662 0.0544334 -1.36112e-19)
(0.0517529 0.0511042 -2.36963e-19)
(0.0778819 0.047848 1.96267e-19)
(0.108332 0.0447408 -2.15277e-19)
(0.143488 0.0418429 -3.63782e-19)
(0.183769 0.0392193 -1.35533e-19)
(0.22926 0.0368367 1.27429e-19)
(0.281283 0.035112 2.03485e-19)
(0.335782 0.0327487 3.94743e-19)
(0.405798 0.0334167 2.28883e-20)
(0.455116 0.0292494 2.73064e-19)
(0.567122 0.0337823 -8.85508e-20)
(-0.00685512 0.0113233 -2.29447e-20)
(-0.0179025 0.0290981 2.17771e-19)
(-0.0268131 0.0428644 2.24903e-19)
(-0.0333831 0.0530788 -1.00862e-19)
(-0.0375311 0.0601939 7.08293e-20)
(-0.0391971 0.0646793 -2.63455e-19)
(-0.0383235 0.0669967 5.24283e-20)
(-0.0348455 0.0675782 4.2328e-20)
(-0.028676 0.066815 -1.23448e-19)
(-0.0196941 0.0650517 -3.40011e-20)
(-0.00773526 0.0625832 -4.61996e-19)
(0.00741427 0.0596569 1.47007e-19)
(0.0260203 0.0564765 -2.21835e-20)
(0.0483994 0.0532083 -5.23002e-21)
(0.0749137 0.0499876 -2.13483e-20)
(0.105959 0.0469256 -4.21484e-21)
(0.141949 0.0441158 -1.8848e-20)
(0.183274 0.0416348 2.5244e-19)
(0.230348 0.039577 -2.24322e-19)
(0.283098 0.0378557 2.04337e-19)
(0.342997 0.037183 -3.01283e-19)
(0.404777 0.0353883 -1.45164e-19)
(0.48386 0.0381789 4.18696e-20)
(0.537211 0.0340421 -2.3404e-19)
(0.660552 0.0416896 -7.64614e-20)
(-0.00723011 0.0112741 -2.17885e-19)
(-0.018752 0.0289145 -2.74367e-20)
(-0.0278113 0.0425169 -2.77877e-19)
(-0.0342013 0.0525428 -2.23401e-19)
(-0.0378343 0.0594569 2.96057e-19)
(-0.0386474 0.0637403 2.02864e-19)
(-0.0365793 0.0658647 -8.95884e-20)
(-0.0315565 0.0662706 -8.02785e-20)
(-0.0234761 0.0653572 -5.98215e-20)
(-0.0121929 0.0634767 5.16913e-19)
(0.00249064 0.0609326 1.98884e-19)
(0.0208293 0.0579821 2.80954e-19)
(0.0431359 0.0548408 -1.55461e-20)
(0.0697766 0.051689 5.45903e-20)
(0.101159 0.0486781 1.51312e-19)
(0.137715 0.0459374 -3.54943e-19)
(0.179867 0.0435788 5.60787e-19)
(0.227978 0.0416937 5.9257e-20)
(0.282391 0.0404078 -1.82713e-19)
(0.342815 0.0395515 -2.75795e-19)
(0.410668 0.0401716 -1.49095e-19)
(0.47974 0.0391423 3.323e-19)
(0.566594 0.0441499 -1.10009e-20)
(0.623824 0.0402569 1.73983e-19)
(0.754658 0.0509515 2.09127e-19)
(-0.00759871 0.0111946 1.662e-19)
(-0.019564 0.0286253 1.74022e-20)
(-0.0287242 0.041984 -3.75138e-20)
(-0.0348656 0.0517453 3.94391e-20)
(-0.0378913 0.0583915 -2.81556e-19)
(-0.0377322 0.0624186 3.7514e-19)
(-0.0343188 0.0643102 -8.94149e-22)
(-0.0275635 0.0645168 3.05967e-19)
(-0.0173412 0.0634466 1.30587e-20)
(-0.0034755 0.0614604 -1.04864e-19)
(0.0142711 0.0588718 1.65234e-19)
(0.0362002 0.0559495 -5.55236e-19)
(0.0626747 0.0529233 -3.42539e-19)
(0.0941081 0.0499897 -1.70798e-19)
(0.130945 0.0473183 -7.3701e-20)
(0.173626 0.045057 6.66919e-21)
(0.222551 0.0433357 -3.63705e-19)
(0.277989 0.0422557 1.38236e-19)
(0.340126 0.041968 5.31587e-19)
(0.408394 0.0422041 1.46218e-19)
(0.483836 0.0442878 3.53902e-19)
(0.559819 0.0443095 -3.49956e-19)
(0.652247 0.0513439 -8.15706e-20)
(0.713007 0.0480294 -1.38565e-19)
(0.846127 0.0612865 -7.32179e-19)
(-0.00796084 0.0110887 -1.55747e-19)
(-0.0203311 0.028239 7.90049e-20)
(-0.0295316 0.0412775 1.40536e-19)
(-0.0353385 0.0507017 4.88902e-19)
(-0.0376434 0.0570166 1.84166e-19)
(-0.0363676 0.0607373 -4.09144e-19)
(-0.0314287 0.0623617 -1.0327e-19)
(-0.0227189 0.0623524 -5.42261e-20)
(-0.0100841 0.0611279 -1.78717e-19)
(0.00669077 0.0590598 -5.85644e-20)
(0.0278891 0.0564732 -1.21248e-19)
(0.0538629 0.0536511 4.43046e-19)
(0.0850241 0.0508394 5.2934e-19)
(0.121824 0.0482532 2.66561e-19)
(0.164722 0.0460811 -1.3619e-19)
(0.214133 0.0444887 -9.55238e-20)
(0.270368 0.0436192 2.10224e-19)
(0.333528 0.0435748 -4.75229e-20)
(0.403514 0.0445124 -3.49362e-21)
(0.479421 0.0460741 1.15536e-19)
(0.561565 0.0496815 -1.65586e-19)
(0.643508 0.0510718 -2.87348e-19)
(0.738583 0.0596711 -1.92025e-19)
(0.802107 0.0572848 2.42787e-19)
(0.931605 0.0722626 7.69654e-19)
(-0.00831596 0.0109592 1.24296e-19)
(-0.0210447 0.0277622 4.22823e-19)
(-0.0302098 0.0404085 1.69169e-19)
(-0.0355766 0.0494274 -1.49921e-19)
(-0.0370232 0.0553528 2.0926e-19)
(-0.0344579 0.0587232 2.306e-19)
(-0.0277801 0.0600539 2.58702e-19)
(-0.0168554 0.0598217 -1.45519e-20)
(-0.00149361 0.0584579 2.03727e-19)
(0.0185652 0.0563466 -6.2769e-19)
(0.0436549 0.0538276 3.55392e-19)
(0.074178 0.0512004 -1.89116e-19)
(0.110587 0.0487293 -4.78361e-19)
(0.153352 0.046649 -3.47628e-19)
(0.202908 0.0451662 5.67384e-19)
(0.259587 0.0444596 -1.94706e-19)
(0.323529 0.0446757 -9.60384e-20)
(0.394557 0.0459027 7.40697e-20)
(0.472154 0.0482676 -3.74672e-19)
(0.555004 0.0513572 3.046e-19)
(0.642413 0.0564254 -4.9155e-20)
(0.728661 0.0594272 3.57152e-19)
(0.823065 0.0689337 4.13847e-19)
(0.88803 0.0677216 -1.41709e-19)
(1.00817 0.0833354 -2.81715e-19)
(-0.00866279 0.0108079 -6.48054e-20)
(-0.0216931 0.0271998 -2.3987e-19)
(-0.0307309 0.0393869 6.31578e-21)
(-0.0355295 0.0479375 -1.21202e-19)
(-0.0359537 0.0534221 -3.57298e-19)
(-0.0318945 0.0564066 -1.84932e-19)
(-0.023228 0.0574274 1.01784e-19)
(-0.0097867 0.0569779 -3.17678e-19)
(0.00866246 0.0555048 2.50831e-20)
(0.0324291 0.053408 1.56596e-19)
(0.0618985 0.0510445 -4.50515e-19)
(0.0975168 0.0487324 -1.48348e-19)
(0.139759 0.0467565 3.83172e-19)
(0.18908 0.0453697 2.59343e-19)
(0.245835 0.0447927 -3.35887e-19)
(0.31019 0.0452073 3.61146e-19)
(0.382004 0.0467465 1.50551e-19)
(0.460706 0.0494629 -3.79465e-20)
(0.545219 0.0534033 -3.2757e-20)
(0.63374 0.0581399 -3.23641e-19)
(0.724471 0.0644952 3.57261e-20)
(0.812671 0.0691672 -6.09418e-20)
(0.903109 0.0788242 -3.24004e-19)
(0.967691 0.0788664 -2.38554e-19)
(1.07371 0.0939267 -2.21911e-19)
(-0.00899925 0.0106355 -4.07626e-20)
(-0.0222621 0.026555 -5.33185e-19)
(-0.031061 0.0382205 -3.29588e-19)
(-0.0351401 0.0462465 -4.20472e-19)
(-0.0343483 0.0512476 3.71867e-19)
(-0.0285568 0.0538214 2.99753e-20)
(-0.0176129 0.0545285 2.69894e-19)
(-0.00130958 0.0538825 -2.4697e-19)
(0.020634 0.0523487 4.11268e-19)
(0.048579 0.0503458 1.54263e-19)
(0.0829576 0.0482504 1.26035e-20)
(0.124244 0.0464016 -2.42516e-20)
(0.172905 0.0451036 -8.57103e-20)
(0.229324 0.0446241 -7.45671e-20)
(0.293701 0.045188 7.99519e-20)
(0.365931 0.0469639 1.13223e-19)
(0.445469 0.0500451 -7.20214e-19)
(0.531215 0.0544202 4.51094e-20)
(0.621438 0.060003 -1.19076e-19)
(0.713783 0.0663703 -1.102e-19)
(0.80549 0.073751 5.54263e-20)
(0.892773 0.0799046 -3.58622e-19)
(0.976382 0.0889491 1.62789e-19)
(1.03849 0.090184 2.06443e-19)
(1.12709 0.103518 -4.69076e-19)
(-0.00932172 0.0104416 9.52416e-20)
(-0.0227345 0.025829 3.85916e-19)
(-0.0311616 0.0369147 3.328e-20)
(-0.034343 0.0443684 6.1099e-19)
(-0.0321107 0.0488537 -3.87926e-19)
(-0.0243124 0.0510044 3.80328e-19)
(-0.0107616 0.0514094 -3.41202e-19)
(0.00879286 0.0506059 1.34486e-19)
(0.0346825 0.0490812 -1.73779e-19)
(0.0673173 0.0472756 2.29481e-19)
(0.107163 0.045588 3.80843e-19)
(0.154694 0.0443784 1.97448e-19)
(0.21032 0.043967 7.91384e-20)
(0.274281 0.0446278 8.6501e-20)
(0.346519 0.0465735 -6.58838e-20)
(0.426534 0.0499349 -5.29766e-20)
(0.513248 0.0547321 5.87656e-19)
(0.604924 0.0608537 1.93405e-19)
(0.699137 0.0680391 5.35733e-19)
(0.792982 0.0758546 1.39499e-20)
(0.883086 0.0839323 -3.37693e-19)
(0.966423 0.0911345 4.20642e-19)
(1.04109 0.0988933 5.29923e-19)
(1.09867 0.101211 6.85543e-20)
(1.16812 0.111707 4.6138e-19)
(-0.00962512 0.0102244 -2.70248e-19)
(-0.0230886 0.0250201 1.49794e-19)
(-0.0309881 0.0354744 3.29293e-19)
(-0.0330655 0.042317 -1.29593e-19)
(-0.0291352 0.0462657 -3.85881e-19)
(-0.0190183 0.0479957 -2.8506e-20)
(-0.00249041 0.0481277 2.08886e-20)
(0.0207469 0.0472263 3.74638e-20)
(0.0510741 0.0458039 -2.40397e-19)
(0.0889398 0.0443255 -1.01918e-19)
(0.13482 0.0432127 -3.55686e-19)
(0.189146 0.0428441 -8.81482e-21)
(0.252201 0.0435485 -1.00111e-19)
(0.323987 0.0455907 -3.03558e-20)
(0.404067 0.0491473 2.65609e-19)
(0.491416 0.054278 -3.89289e-19)
(0.584309 0.0608906 1.63976e-19)
(0.680312 0.0687361 -2.59334e-19)
(0.776354 0.0773593 -3.87273e-19)
(0.869099 0.0862797 7.16119e-20)
(0.955014 0.0946785 7.20536e-19)
(1.03165 0.10231 -3.65062e-19)
(1.0962 0.108325 1.59014e-20)
(1.14735 0.111637 3.16419e-19)
(1.19742 0.118125 1.77483e-19)
(-0.00990225 0.00998067 1.27272e-19)
(-0.0232987 0.0241259 -1.80772e-19)
(-0.03049 0.0339029 -3.83215e-19)
(-0.0312275 0.0401052 -2.03695e-19)
(-0.0253076 0.0435103 2.2273e-19)
(-0.0125226 0.0448386 7.58347e-20)
(0.00739229 0.0447464 4.43415e-19)
(0.0347823 0.0438294 1.79937e-19)
(0.0700698 0.0426282 1.13793e-19)
(0.113722 0.0416337 5.30546e-20)
(0.166188 0.0412891 3.67721e-19)
(0.227794 0.041985 1.66359e-19)
(0.298609 0.0440453 -1.37788e-19)
(0.378278 0.0477027 1.97177e-19)
(0.465857 0.0530652 -1.13691e-19)
(0.559676 0.0600818 1.4441e-19)
(0.657292 0.0685081 -1.40189e-19)
(0.755594 0.0779262 -3.0536e-19)
(0.85102 0.0876929 4.44083e-19)
(0.940049 0.0972549 -4.64373e-19)
(1.01944 0.105571 1.31343e-19)
(1.08728 0.112927 -1.51716e-19)
(1.14144 0.117097 -1.14606e-19)
(1.1845 0.121175 -9.44589e-19)
(1.21643 0.122211 1.50878e-19)
(-0.0101442 0.00970751 2.60052e-20)
(-0.0233342 0.0231422 1.29548e-19)
(-0.0296107 0.0322023 4.29962e-19)
(-0.0287413 0.0377464 -1.01437e-19)
(-0.0205061 0.0406156 -4.42021e-20)
(-0.00466686 0.0415795 8.22388e-20)
(0.0190816 0.0413338 7.33295e-20)
(0.0511261 0.0405081 -2.88956e-19)
(0.0919152 0.0396734 -1.34256e-19)
(0.141904 0.0393461 -4.14506e-19)
(0.20146 0.039986 -3.13073e-19)
(0.270722 0.0419841 -2.23344e-19)
(0.349435 0.0456384 1.99585e-19)
(0.436761 0.0511184 -2.91454e-19)
(0.531122 0.0584235 -1.4037e-19)
(0.630119 0.0673498 -6.14561e-20)
(0.730593 0.0774679 -4.43788e-20)
(0.828877 0.0881771 9.14188e-19)
(0.921175 0.0986806 5.82089e-20)
(1.00413 0.108365 -8.04529e-20)
(1.07515 0.116184 -4.53925e-19)
(1.13302 0.122628 1.47531e-19)
(1.17717 0.125227 1.53564e-20)
(1.21083 0.129166 5.43023e-19)
(1.2278 0.123579 6.09767e-20)
(-0.0103411 0.00940078 2.05584e-19)
(-0.0231603 0.0220637 -1.97718e-19)
(-0.0282871 0.0303744 -3.00293e-19)
(-0.0255131 0.0352544 3.01607e-19)
(-0.0146029 0.0376117 -6.73732e-20)
(0.00471134 0.0382688 -5.84108e-20)
(0.0327715 0.0379634 5.09162e-20)
(0.0699942 0.0373616 -7.29038e-20)
(0.116829 0.0370651 1.82947e-19)
(0.173672 0.0376125 1.18676e-19)
(0.240736 0.0394707 3.07504e-19)
(0.317873 0.0430125 -8.2591e-21)
(0.404378 0.0484807 2.52298e-19)
(0.498802 0.0559422 -1.69135e-20)
(0.598833 0.0652443 2.69535e-19)
(0.701321 0.075992 7.84939e-20)
(0.802485 0.0875544 -5.06887e-19)
(0.898337 0.0991617 -2.47167e-19)
(0.985175 0.109922 -6.0135e-20)
(1.06017 0.119222 1.63286e-19)
(1.12165 0.126151 -7.75558e-20)
(1.16931 0.131268 -2.75579e-19)
(1.20408 0.132625 3.6176e-20)
(1.22789 0.134742 -2.54635e-19)
(1.24112 0.128648 -1.23269e-19)
(-0.01048 0.00905561 1.25909e-19)
(-0.0227383 0.0208851 1.34447e-19)
(-0.0264511 0.0284216 2.46414e-19)
(-0.0214432 0.0326445 -1.79527e-19)
(-0.0074659 0.0345316 1.30938e-20)
(0.015775 0.0349608 3.59696e-19)
(0.0486493 0.034714 -1.03113e-19)
(0.0915836 0.0344947 -3.4426e-19)
(0.14499 0.0349334 -2.04082e-19)
(0.209143 0.0365834 2.72991e-19)
(0.284008 0.0399028 -5.6903e-19)
(0.369033 0.0452197 2.2303e-21)
(0.462933 0.052684 -4.88857e-20)
(0.563534 0.0622156 3.61836e-19)
(0.667745 0.073467 -1.96946e-19)
(0.771725 0.0858279 2.70697e-19)
(0.871276 0.0984736 2.73932e-19)
(0.962398 0.11051 -4.83912e-19)
(1.04185 0.121031 -2.01984e-19)
(1.10763 0.129499 -1.6788e-19)
(1.15911 0.135222 2.56369e-19)
(1.19703 0.138868 4.06381e-19)
(1.22313 0.138926 1.89315e-19)
(1.23954 0.139509 -1.68354e-19)
(1.24854 0.133063 -3.04141e-19)
(-0.0105464 0.00866742 -2.97342e-20)
(-0.0220248 0.0196019 1.25839e-19)
(-0.0240293 0.0263475 -2.50116e-19)
(-0.0164273 0.0299345 -3.84129e-19)
(0.0010392 0.0314119 -5.69459e-19)
(0.0286843 0.0317146 9.70069e-20)
(0.0668903 0.0316698 -1.14519e-19)
(0.116063 0.0320173 1.679e-19)
(0.176524 0.0334108 6.24472e-20)
(0.248346 0.0364054 1.20478e-19)
(0.331139 0.041427 1.34e-19)
(0.423816 0.0487241 -7.39959e-20)
(0.52439 0.058309 -1.07107e-19)
(0.629891 0.0699086 -2.40751e-19)
(0.736475 0.0829489 7.34582e-20)
(0.839774 0.0966012 -2.87825e-19)
(0.935459 0.109885 1.06175e-19)
(1.01988 0.121854 6.85016e-20)
(1.09056 0.131676 -2.85522e-19)
(1.14655 0.138967 -3.0808e-19)
(1.18826 0.143292 -1.65033e-19)
(1.21731 0.145442 9.37739e-21)
(1.23604 0.144283 5.16417e-20)
(1.2466 0.143594 -1.66352e-19)