/*--------------------------------*- C++ -*----------------------------------*\
  =========                 |
  \\      /  F ield         | OpenFOAM: The Open Source CFD Toolbox
   \\    /   O peration     | Website:  https://openfoam.org
    \\  /    A nd           | Version:  7
     \\/     M anipulation  |
\*---------------------------------------------------------------------------*/
FoamFile
{
    version     2.0;
    format      ascii;
    class       volVectorField;
    location    "105";
    object      U;
}
// * * * * * * * * * * * * * * * * * * * * * * * * * * * * * * * * * * * * * //

dimensions      [0 1 -1 0 0 0 0];

internalField   nonuniform List<vector> 
1987
(
(1.04246 -0.433784 0)
(1.07872 -0.399602 0)
(1.11089 -0.325103 0)
(1.13705 -0.211167 0)
(1.15653 -0.0704563 0)
(1.16689 0.0727191 0)
(1.16479 0.192661 0)
(1.14946 0.274981 0)
(1.1236 0.319369 0)
(1.09187 0.33406 0)
(1.05843 0.329751 0)
(1.02515 0.315811 0)
(0.992974 0.297628 0)
(0.963046 0.276562 0)
(0.935544 0.253546 0)
(0.908126 0.230773 0)
(0.87888 0.208885 0)
(1.0505 -0.420356 0)
(1.08873 -0.387379 0)
(1.12263 -0.314952 0)
(1.15069 -0.203348 0)
(1.17192 -0.0654299 0)
(1.18289 0.0739919 0)
(1.17996 0.189639 0)
(1.1629 0.268089 0)
(1.13508 0.30989 0)
(1.10155 0.323479 0)
(1.06672 0.319088 0)
(1.03259 0.305512 0)
(0.999871 0.28798 0)
(0.969466 0.267763 0)
(0.941833 0.245314 0)
(0.915016 0.222469 0)
(0.886848 0.200399 0)
(0.85823 0.176072 0)
(0.834215 0.143919 0)
(0.819999 0.100473 0)
(0.818061 0.0478824 0)
(0.827139 -0.00869975 0)
(0.844586 -0.064745 0)
(0.867597 -0.119737 0)
(0.894286 -0.175829 0)
(0.923831 -0.235101 0)
(0.955085 -0.295878 0)
(0.987499 -0.351037 0)
(1.01801 -0.390481 0)
(1.04538 -0.402253 0)
(1.06506 -0.378876 0)
(1.07663 -0.313444 0)
(1.07819 -0.210275 0)
(1.07309 -0.0775977 0)
(1.06133 0.057542 0)
(1.04455 0.175577 0)
(1.02367 0.25579 0)
(0.999023 0.299454 0)
(0.974819 0.308795 0)
(0.949925 0.294589 0)
(0.926913 0.269717 0)
(0.899835 0.235734 0)
(0.875364 0.207846 0)
(0.851574 0.162822 0)
(0.841684 0.124607 0)
(0.838089 0.0515101 0)
(0.853402 -0.00986323 0)
(0.866464 -0.105417 0)
(0.895823 -0.174788 0)
(0.90936 -0.25806 0)
(0.936274 -0.30602 0)
(0.940612 -0.340862 0)
(0.951119 -0.349615 0)
(0.93615 -0.293191 0)
(0.935395 -0.275914 0)
(0.881599 -0.0820385 0)
(1.05761 -0.405798 0)
(1.09758 -0.374055 0)
(1.13322 -0.303654 0)
(1.16341 -0.19449 0)
(1.1865 -0.0598038 0)
(1.19804 0.0752649 0)
(1.19422 0.186065 0)
(1.17543 0.260332 0)
(1.14576 0.299461 0)
(1.11061 0.312015 0)
(1.07458 0.307698 0)
(1.03975 0.29464 0)
(1.00666 0.277845 0)
(0.975913 0.258562 0)
(0.948171 0.236855 0)
(0.92192 0.214124 0)
(0.89489 0.1919 0)
(0.86718 0.168197 0)
(0.843179 0.138142 0)
(0.82813 0.0979337 0)
(0.825074 0.0487629 0)
(0.833187 -0.00499453 0)
(0.849968 -0.05906 0)
(0.872641 -0.112755 0)
(0.899357 -0.167963 0)
(0.929436 -0.226579 0)
(0.96177 -0.286977 0)
(0.995877 -0.34219 0)
(1.02859 -0.382376 0)
(1.0586 -0.395605 0)
(1.08091 -0.374495 0)
(1.09487 -0.311539 0)
(1.09837 -0.210712 0)
(1.09418 -0.0798554 0)
(1.08208 0.0538342 0)
(1.06385 0.170701 0)
(1.04094 0.250135 0)
(1.01401 0.293251 0)
(0.987401 0.302852 0)
(0.960658 0.288636 0)
(0.936561 0.26397 0)
(0.909252 0.229585 0)
(0.884469 0.202445 0)
(0.859911 0.158752 0)
(0.849038 0.123092 0)
(0.844166 0.0526221 0)
(0.859551 -0.00671468 0)
(0.872505 -0.100756 0)
(0.903821 -0.170066 0)
(0.91855 -0.253464 0)
(0.948291 -0.302643 0)
(0.954644 -0.338775 0)
(0.968301 -0.350086 0)
(0.954301 -0.294464 0)
(0.956653 -0.280604 0)
(0.903105 -0.0881559 0)
(1.06359 -0.390069 0)
(1.10508 -0.359571 0)
(1.14253 -0.291182 0)
(1.17506 -0.184569 0)
(1.20009 -0.0535375 0)
(1.21213 0.0765225 0)
(1.20733 0.1819 0)
(1.18683 0.251685 0)
(1.15546 0.288082 0)
(1.11892 0.299685 0)
(1.0819 0.295604 0)
(1.04656 0.283223 0)
(1.01327 0.267253 0)
(0.982348 0.24897 0)
(0.954541 0.228163 0)
(0.928811 0.20575 0)
(0.902948 0.183435 0)
(0.876323 0.160211 0)
(0.852526 0.132047 0)
(0.836689 0.0949995 0)
(0.832395 0.0493386 0)
(0.839364 -0.00142299 0)
(0.855334 -0.0533369 0)
(0.877571 -0.105582 0)
(0.904243 -0.159749 0)
(0.934786 -0.217538 0)
(0.968123 -0.277388 0)
(1.00386 -0.332498 0)
(1.03878 -0.373325 0)
(1.07144 -0.388 0)
(1.09644 -0.369262 0)
(1.1129 -0.308963 0)
(1.11848 -0.210777 0)
(1.11528 -0.0821246 0)
(1.10289 0.0497631 0)
(1.08323 0.165205 0)
(1.05832 0.243743 0)
(1.02919 0.286241 0)
(1.00021 0.296174 0)
(0.971607 0.282097 0)
(0.946351 0.257859 0)
(0.918848 0.223151 0)
(0.893842 0.196734 0)
(0.868595 0.15433 0)
(0.856733 0.121252 0)
(0.850428 0.0536199 0)
(0.865758 -0.00347307 0)
(0.878465 -0.0957274 0)
(0.911736 -0.164824 0)
(0.927745 -0.248245 0)
(0.960452 -0.298613 0)
(0.969001 -0.336013 0)
(0.986147 -0.350134 0)
(0.973231 -0.295324 0)
(0.978882 -0.285077 0)
(0.926032 -0.0944737 0)
(1.06826 -0.373174 0)
(1.1111 -0.343923 0)
(1.15049 -0.277455 0)
(1.18557 -0.173468 0)
(1.21255 -0.0465793 0)
(1.22494 0.0777359 0)
(1.21904 0.177096 0)
(1.19687 0.242125 0)
(1.16398 0.275772 0)
(1.12634 0.286529 0)
(1.08859 0.282844 0)
(1.05293 0.271304 0)
(1.01964 0.256247 0)
(0.988728 0.239011 0)
(0.960925 0.219233 0)
(0.935665 0.197347 0)
(0.910963 0.175046 0)
(0.885585 0.152177 0)
(0.862222 0.125664 0)
(0.845696 0.0916359 0)
(0.840066 0.0495383 0)
(0.845694 0.00194632 0)
(0.860669 -0.047619 0)
(0.882344 -0.0982348 0)
(0.908879 -0.15119 0)
(0.939793 -0.207966 0)
(0.974025 -0.267084 0)
(1.01131 -0.321908 0)
(1.0484 -0.363257 0)
(1.08367 -0.379361 0)
(1.11138 -0.363099 0)
(1.13044 -0.305651 0)
(1.1382 -0.210421 0)
(1.13609 -0.0843779 0)
(1.12347 0.0453253 0)
(1.10247 0.15906 0)
(1.07561 0.236584 0)
(1.04441 0.278392 0)
(1.01313 0.288722 0)
(0.982706 0.27493 0)
(0.956227 0.25136 0)
(0.928564 0.216435 0)
(0.903441 0.190721 0)
(0.877613 0.14955 0)
(0.864785 0.119045 0)
(0.856894 0.0544612 0)
(0.872015 -0.000171501 0)
(0.884306 -0.0903271 0)
(0.919479 -0.159021 0)
(0.936849 -0.242339 0)
(0.972645 -0.293849 0)
(0.983551 -0.332471 0)
(1.00455 -0.349673 0)
(0.992855 -0.295709 0)
(1.00197 -0.289249 0)
(0.950309 -0.100943 0)
(1.07152 -0.355163 0)
(1.11559 -0.327058 0)
(1.15715 -0.262304 0)
(1.19498 -0.161063 0)
(1.22383 -0.0389368 0)
(1.2363 0.0788337 0)
(1.22913 0.17159 0)
(1.20533 0.231641 0)
(1.17117 0.262573 0)
(1.13274 0.27261 0)
(1.09456 0.269477 0)
(1.05881 0.258932 0)
(1.02571 0.24488 0)
(0.995002 0.228719 0)
(0.967304 0.210065 0)
(0.942467 0.188912 0)
(0.918881 0.166772 0)
(0.894878 0.144169 0)
(0.872207 0.119042 0)
(0.85516 0.087824 0)
(0.848139 0.0492874 0)
(0.852217 0.0050302 0)
(0.865975 -0.0419689 0)
(0.886922 -0.09075 0)
(0.913194 -0.142301 0)
(0.944354 -0.197868 0)
(0.979347 -0.256053 0)
(1.01807 -0.310384 0)
(1.05725 -0.352122 0)
(1.09505 -0.369626 0)
(1.12548 -0.355938 0)
(1.1472 -0.301531 0)
(1.15721 -0.209579 0)
(1.15625 -0.0865815 0)
(1.14352 0.0405259 0)
(1.1213 0.152252 0)
(1.09259 0.228639 0)
(1.05948 0.269688 0)
(1.02604 0.28047 0)
(0.993879 0.267101 0)
(0.966128 0.244448 0)
(0.938339 0.209447 0)
(0.913216 0.184419 0)
(0.886942 0.144416 0)
(0.873205 0.116432 0)
(0.863589 0.0550972 0)
(0.878316 0.0031452 0)
(0.889995 -0.0845658 0)
(0.926954 -0.152623 0)
(0.945752 -0.23568 0)
(0.984738 -0.288271 0)
(0.998133 -0.328037 0)
(1.02336 -0.348605 0)
(1.01306 -0.295552 0)
(1.02578 -0.293022 0)
(0.975833 -0.107501 0)
(1.0734 -0.336068 0)
(1.11873 -0.308849 0)
(1.1628 -0.245537 0)
(1.20351 -0.14725 0)
(1.23391 -0.030664 0)
(1.24601 0.0797005 0)
(1.23735 0.16531 0)
(1.212 0.220239 0)
(1.17684 0.24855 0)
(1.138 0.258017 0)
(1.09974 0.25558 0)
(1.06414 0.246171 0)
(1.03143 0.23321 0)
(1.00112 0.218141 0)
(0.973655 0.200668 0)
(0.949209 0.180434 0)
(0.926656 0.158638 0)
(0.904109 0.136263 0)
(0.882398 0.112253 0)
(0.865072 0.0835663 0)
(0.856673 0.048513 0)
(0.859001 0.00772889 0)
(0.871275 -0.0364708 0)
(0.891276 -0.0831808 0)
(0.917117 -0.133116 0)
(0.948359 -0.187265 0)
(0.983956 -0.244299 0)
(1.02397 -0.297908 0)
(1.06512 -0.339887 0)
(1.10532 -0.358751 0)
(1.13843 -0.347712 0)
(1.16281 -0.296529 0)
(1.1751 -0.208194 0)
(1.17539 -0.0886867 0)
(1.16268 0.0353887 0)
(1.13942 0.144778 0)
(1.109 0.219905 0)
(1.07421 0.260126 0)
(1.03879 0.271407 0)
(1.00504 0.258581 0)
(0.975992 0.2371 0)
(0.948103 0.202199 0)
(0.923103 0.177847 0)
(0.896549 0.13894 0)
(0.882002 0.113376 0)
(0.870545 0.0554729 0)
(0.884662 0.00642015 0)
(0.895505 -0.0784688 0)
(0.934059 -0.145607 0)
(0.954324 -0.228203 0)
(0.996579 -0.281802 0)
(1.01255 -0.322594 0)
(1.04239 -0.346815 0)
(1.0337 -0.294783 0)
(1.05013 -0.296291 0)
(1.00246 -0.114077 0)
(1.07424 -0.315878 0)
(1.12106 -0.289106 0)
(1.16801 -0.226961 0)
(1.2115 -0.132022 0)
(1.24281 -0.0219124 0)
(1.25388 0.0801551 0)
(1.24346 0.15817 0)
(1.21669 0.207945 0)
(1.18089 0.2338 0)
(1.14204 0.242869 0)
(1.10407 0.241253 0)
(1.06889 0.233093 0)
(1.03674 0.221305 0)
(1.00702 0.207334 0)
(0.979948 0.191061 0)
(0.955889 0.1719 0)
(0.934255 0.150657 0)
(0.91318 0.128536 0)
(0.892683 0.105391 0)
(0.875391 0.0788949 0)
(0.865723 0.0471543 0)
(0.866138 0.00992636 0)
(0.876631 -0.0312342 0)
(0.895398 -0.0756063 0)
(0.920578 -0.123689 0)
(0.951696 -0.176193 0)
(0.987715 -0.231838 0)
(1.02884 -0.284478 0)
(1.07178 -0.32654 0)
(1.11422 -0.346701 0)
(1.14991 -0.338363 0)
(1.17692 -0.290586 0)
(1.19148 -0.206204 0)
(1.19309 -0.0906643 0)
(1.18056 0.0299435 0)
(1.1565 0.136658 0)
(1.12459 0.210395 0)
(1.0884 0.249721 0)
(1.05123 0.261537 0)
(1.01608 0.249355 0)
(0.98575 0.229292 0)
(0.957785 0.194702 0)
(0.933032 0.171032 0)
(0.906388 0.133148 0)
(0.891174 0.109847 0)
(0.8778 0.0555282 0)
(0.891062 0.00958232 0)
(0.90082 -0.0720797 0)
(0.940694 -0.137963 0)
(0.962422 -0.219851 0)
(1.00799 -0.274365 0)
(1.02658 -0.316025 0)
(1.06141 -0.344173 0)
(1.05457 -0.293322 0)
(1.07483 -0.298941 0)
(1.03 -0.120585 0)
(1.07508 -0.294524 0)
(1.12374 -0.267596 0)
(1.17374 -0.206456 0)
(1.21936 -0.115557 0)
(1.25047 -0.0130193 0)
(1.25965 0.0799381 0)
(1.24721 0.150087 0)
(1.21924 0.19482 0)
(1.18321 0.218455 0)
(1.1448 0.227308 0)
(1.10751 0.226614 0)
(1.07301 0.219784 0)
(1.04161 0.209234 0)
(1.01265 0.196364 0)
(0.986145 0.181274 0)
(0.962506 0.163295 0)
(0.941667 0.142822 0)
(0.922006 0.121049 0)
(0.902926 0.0985665 0)
(0.886037 0.0738792 0)
(0.875328 0.0451762 0)
(0.873749 0.0115034 0)
(0.88215 -0.0263978 0)
(0.899321 -0.0681391 0)
(0.923528 -0.114101 0)
(0.954263 -0.164704 0)
(0.990493 -0.218702 0)
(1.03251 -0.270113 0)
(1.077 -0.312083 0)
(1.12144 -0.333455 0)
(1.1596 -0.327848 0)
(1.18912 -0.283654 0)
(1.20589 -0.203559 0)
(1.20888 -0.0924684 0)
(1.19672 0.0242446 0)
(1.1722 0.127934 0)
(1.13908 0.200144 0)
(1.10181 0.238509 0)
(1.06318 0.250883 0)
(1.02689 0.239424 0)
(0.995334 0.221007 0)
(0.96731 0.186974 0)
(0.942922 0.164009 0)
(0.916401 0.127081 0)
(0.900712 0.105829 0)
(0.885396 0.0552 0)
(0.897535 0.0125484 0)
(0.905938 -0.0654628 0)
(0.946766 -0.1297 0)
(0.96989 -0.210571 0)
(1.01879 -0.265892 0)
(1.03997 -0.308213 0)
(1.08011 -0.340535 0)
(1.07543 -0.291079 0)
(1.0996 -0.300847 0)
(1.0582 -0.126928 0)
(1.07778 -0.271892 0)
(1.12847 -0.24415 0)
(1.181 -0.184154 0)
(1.2273 -0.098324 0)
(1.2566 -0.00450389 0)
(1.26298 0.0787395 0)
(1.24836 0.141006 0)
(1.21953 0.180976 0)
(1.18377 0.202687 0)
(1.14626 0.211506 0)
(1.11003 0.2118 0)
(1.0765 0.206335 0)
(1.04601 0.197071 0)
(1.01797 0.185302 0)
(0.992199 0.171356 0)
(0.969058 0.154611 0)
(0.9489 0.135112 0)
(0.930522 0.113844 0)
(0.91298 0.0918978 0)
(0.896878 0.0686292 0)
(0.885486 0.0425864 0)
(0.881962 0.0123514 0)
(0.887992 -0.022127 0)
(0.903137 -0.0609346 0)
(0.925963 -0.104467 0)
(0.955982 -0.152876 0)
(0.992165 -0.204942 0)
(1.03479 -0.254851 0)
(1.08055 -0.29654 0)
(1.12672 -0.319016 0)
(1.16713 -0.316145 0)
(1.19901 -0.275698 0)
(1.2179 -0.200217 0)
(1.22233 -0.0940095 0)
(1.21075 0.0183803 0)
(1.18617 0.118682 0)
(1.15219 0.189214 0)
(1.11422 0.226548 0)
(1.07447 0.239494 0)
(1.03736 0.228807 0)
(1.00468 0.21223 0)
(0.976605 0.179029 0)
(0.952687 0.156814 0)
(0.926513 0.120793 0)
(0.910589 0.101319 0)
(0.893377 0.0544252 0)
(0.904115 0.0152218 0)
(0.91088 -0.0587066 0)
(0.9522 -0.120852 0)
(0.976567 -0.200326 0)
(1.02876 -0.256322 0)
(1.05243 -0.299051 0)
(1.09816 -0.33574 0)
(1.09597 -0.287955 0)
(1.12414 -0.301872 0)
(1.08676 -0.132997 0)
(1.0847 -0.247946 0)
(1.13691 -0.21892 0)
(1.19033 -0.160656 0)
(1.23499 -0.0811442 0)
(1.26066 0.00297221 0)
(1.26344 0.0762597 0)
(1.24675 0.130943 0)
(1.21755 0.166587 0)
(1.1826 0.186706 0)
(1.14647 0.19565 0)
(1.11166 0.196958 0)
(1.07935 0.192847 0)
(1.04993 0.184886 0)
(1.02293 0.17422 0)
(0.998057 0.161365 0)
(0.975528 0.145855 0)
(0.955974 0.127491 0)
(0.938696 0.106932 0)
(0.922704 0.0854934 0)
(0.907736 0.0632916 0)
(0.896128 0.0394498 0)
(0.890884 0.0123936 0)
(0.894366 -0.0186029 0)
(0.907023 -0.0541943 0)
(0.927963 -0.0949524 0)
(0.956833 -0.14082 0)
(0.992637 -0.190638 0)
(1.03553 -0.238757 0)
(1.08221 -0.279961 0)
(1.12978 -0.303408 0)
(1.17218 -0.303255 0)
(1.20619 -0.266704 0)
(1.22705 -0.196141 0)
(1.23297 -0.0952118 0)
(1.22224 0.0124589 0)
(1.19807 0.109012 0)
(1.16367 0.177696 0)
(1.12542 0.213921 0)
(1.08491 0.227437 0)
(1.04736 0.217546 0)
(1.01371 0.202954 0)
(0.985605 0.170882 0)
(0.962236 0.149491 0)
(0.936635 0.114356 0)
(0.920761 0.096337 0)
(0.901788 0.0531454 0)
(0.910853 0.0174929 0)
(0.915691 -0.0519264 0)
(0.956949 -0.111485 0)
(0.982297 -0.189101 0)
(1.03768 -0.245609 0)
(1.06365 -0.288449 0)
(1.11515 -0.329624 0)
(1.1158 -0.283837 0)
(1.14807 -0.30187 0)
(1.1153 -0.138669 0)
(1.09731 -0.222949 0)
(1.14945 -0.192637 0)
(1.20102 -0.137116 0)
(1.24133 -0.0651405 0)
(1.26177 0.00872567 0)
(1.26063 0.0723079 0)
(1.24228 0.120026 0)
(1.21338 0.1519 0)
(1.17983 0.170756 0)
(1.14549 0.179941 0)
(1.11243 0.182242 0)
(1.08158 0.179427 0)
(1.05337 0.172751 0)
(1.0275 0.163186 0)
(1.00366 0.151369 0)
(0.981888 0.13705 0)
(0.962915 0.119925 0)
(0.946537 0.100291 0)
(0.931985 0.0794345 0)
(0.918402 0.0580343 0)
(0.907104 0.0358986 0)
(0.900559 0.0116141 0)
(0.9015 -0.015996 0)
(0.911257 -0.0481592 0)
(0.929732 -0.0857776 0)
(0.956898 -0.128701 0)
(0.991874 -0.175911 0)
(1.0346 -0.221935 0)
(1.0818 -0.262428 0)
(1.13038 -0.286685 0)
(1.17444 -0.289206 0)
(1.2103 -0.256679 0)
(1.23291 -0.191294 0)
(1.24038 -0.0960116 0)
(1.23082 0.00661072 0)
(1.20761 0.0990698 0)
(1.17327 0.165714 0)
(1.13523 0.200736 0)
(1.09435 0.214803 0)
(1.05675 0.205708 0)
(1.02237 0.193186 0)
(0.994252 0.162546 0)
(0.971484 0.142077 0)
(0.94666 0.10785 0)
(0.931157 0.0909276 0)
(0.910665 0.0513138 0)
(0.917817 0.0192517 0)
(0.92045 -0.0452643 0)
(0.961003 -0.101705 0)
(0.98694 -0.176911 0)
(1.04532 -0.233729 0)
(1.07334 -0.276342 0)
(1.13063 -0.32202 0)
(1.13448 -0.2786 0)
(1.17093 -0.300684 0)
(1.14333 -0.143812 0)
(1.11457 -0.197611 0)
(1.16422 -0.166615 0)
(1.21089 -0.115036 0)
(1.24461 -0.0514247 0)
(1.25907 0.0122846 0)
(1.25435 0.0669177 0)
(1.23511 0.108528 0)
(1.20724 0.137227 0)
(1.17564 0.155094 0)
(1.14346 0.164574 0)
(1.1124 0.167798 0)
(1.08321 0.166179 0)
(1.05635 0.160734 0)
(1.03168 0.152261 0)
(1.00897 0.14144 0)
(0.98809 0.128239 0)
(0.969739 0.112385 0)
(0.954086 0.0938712 0)
(0.940766 0.0737573 0)
(0.928667 0.0530208 0)
(0.918176 0.0321264 0)
(0.910919 0.0100857 0)
(0.909586 -0.0144245 0)
(0.916202 -0.043083 0)
(0.931634 -0.0772237 0)
(0.956418 -0.116757 0)
(0.989968 -0.160944 0)
(1.03196 -0.204532 0)
(1.0792 -0.244056 0)
(1.12834 -0.268938 0)
(1.17363 -0.274057 0)
(1.21097 -0.245658 0)
(1.2351 -0.185651 0)
(1.24423 -0.0963025 0)
(1.23621 0.00101686 0)
(1.21456 0.0890442 0)
(1.18083 0.153421 0)
(1.14347 0.187122 0)
(1.10263 0.201703 0)
(1.06542 0.193384 0)
(1.0306 0.182945 0)
(1.0025 0.154033 0)
(0.980353 0.13461 0)
(0.956473 0.101367 0)
(0.941678 0.0851666 0)
(0.920026 0.0489065 0)
(0.925093 0.0203871 0)
(0.925273 -0.0388886 0)
(0.964407 -0.0916638 0)
(0.990398 -0.163815 0)
(1.05146 -0.220684 0)
(1.08117 -0.262701 0)
(1.14412 -0.312774 0)
(1.15149 -0.272112 0)
(1.19219 -0.298145 0)
(1.17032 -0.148281 0)
(1.13275 -0.172958 0)
(1.1775 -0.142359 0)
(1.21705 -0.0957562 0)
(1.24325 -0.0406997 0)
(1.25209 0.0135922 0)
(1.24476 0.0603948 0)
(1.22561 0.0968428 0)
(1.19948 0.122909 0)
(1.17028 0.139973 0)
(1.14053 0.149726 0)
(1.11165 0.153762 0)
(1.08428 0.153205 0)
(1.05888 0.148904 0)
(1.03546 0.141499 0)
(1.01393 0.131643 0)
(0.994075 0.119481 0)
(0.976441 0.104867 0)
(0.961403 0.0876082 0)
(0.949054 0.0684445 0)
(0.938365 0.0483773 0)
(0.929051 0.0283634 0)
(0.921759 0.00798524 0)
(0.918704 -0.0139037 0)
(0.922237 -0.0391817 0)
(0.934192 -0.06961 0)
(0.955861 -0.105305 0)
(0.987216 -0.146002 0)
(1.02776 -0.186764 0)
(1.07441 -0.22501 0)
(1.12356 -0.250301 0)
(1.16954 -0.257912 0)
(1.2079 -0.233707 0)
(1.23331 -0.179185 0)
(1.2443 -0.0959187 0)
(1.23827 -0.00410457 0)
(1.21882 0.0791608 0)
(1.18624 0.140999 0)
(1.15005 0.173229 0)
(1.10965 0.18826 0)
(1.07323 0.180691 0)
(1.03834 0.172271 0)
(1.01032 0.145353 0)
(0.988784 0.127115 0)
(0.965955 0.0949977 0)
(0.95219 0.0791624 0)
(0.929861 0.0459304 0)
(0.932774 0.0207937 0)
(0.930315 -0.0329903 0)
(0.967274 -0.0815622 0)
(0.992638 -0.149925 0)
(1.0559 -0.206515 0)
(1.08688 -0.247546 0)
(1.15512 -0.301757 0)
(1.16627 -0.264239 0)
(1.21125 -0.294082 0)
(1.19558 -0.151925 0)
(1.14717 -0.150004 0)
(1.18556 -0.121003 0)
(1.21734 -0.0799575 0)
(1.23659 -0.0329938 0)
(1.2411 0.0130496 0)
(1.23248 0.053258 0)
(1.21437 0.0854157 0)
(1.19055 0.109264 0)
(1.16405 0.125605 0)
(1.13688 0.135544 0)
(1.11028 0.140246 0)
(1.08482 0.140599 0)
(1.06097 0.137328 0)
(1.03885 0.130948 0)
(1.01854 0.122037 0)
(0.999783 0.110845 0)
(0.982984 0.0973942 0)
(0.968538 0.0814448 0)
(0.956919 0.0634314 0)
(0.947414 0.0441629 0)
(0.939439 0.0248316 0)
(0.93274 0.00557956 0)
(0.928746 -0.0143037 0)
(0.929651 -0.0365614 0)
(0.938013 -0.0632381 0)
(0.955932 -0.094731 0)
(0.984215 -0.131454 0)
(1.02241 -0.168939 0)
(1.06766 -0.205534 0)
(1.11609 -0.230979 0)
(1.16206 -0.240939 0)
(1.20091 -0.220912 0)
(1.22742 -0.171834 0)
(1.24059 -0.0946758 0)
(1.23706 -0.0085108 0)
(1.2204 0.0696647 0)
(1.1895 0.12864 0)
(1.15492 0.159215 0)
(1.11534 0.174609 0)
(1.08008 0.167764 0)
(1.04553 0.161226 0)
(1.0177 0.13652 0)
(0.996739 0.119605 0)
(0.974994 0.0888247 0)
(0.96253 0.0730537 0)
(0.940111 0.0424323 0)
(0.940953 0.0204083 0)
(0.935767 -0.0277678 0)
(0.969799 -0.0716513 0)
(0.993719 -0.135426 0)
(1.0585 -0.191312 0)
(1.09023 -0.230952 0)
(1.16314 -0.288882 0)
(1.17823 -0.254859 0)
(1.22741 -0.288327 0)
(1.2184 -0.154588 0)
(1.15476 -0.129438 0)
(1.18659 -0.102973 0)
(1.21142 -0.0675061 0)
(1.22529 -0.0277383 0)
(1.22713 0.0113472 0)
(1.21846 0.0460873 0)
(1.2021 0.0746443 0)
(1.18092 0.0965418 0)
(1.15724 0.112149 0)
(1.1327 0.122137 0)
(1.10839 0.127339 0)
(1.08489 0.128442 0)
(1.06265 0.126072 0)
(1.04188 0.120649 0)
(1.02277 0.112663 0)
(1.00516 0.102395 0)
(0.98931 0.0900153 0)
(0.975511 0.0753512 0)
(0.964457 0.0586282 0)
(0.955837 0.0403561 0)
(0.949124 0.0216914 0)
(0.943456 0.00317811 0)
(0.939384 -0.0153417 0)
(0.938498 -0.0351469 0)
(0.943629 -0.058301 0)
(0.957494 -0.0854256 0)
(0.981889 -0.117755 0)
(1.0167 -0.151488 0)
(1.05949 -0.185993 0)
(1.10619 -0.211293 0)
(1.15122 -0.223387 0)
(1.19002 -0.207364 0)
(1.21763 -0.163485 0)
(1.23346 -0.0923298 0)
(1.23292 -0.0119201 0)
(1.21951 0.0608007 0)
(1.19068 0.116536 0)
(1.15806 0.145241 0)
(1.11967 0.160882 0)
(1.08588 0.154752 0)
(1.05212 0.1499 0)
(1.02463 0.127552 0)
(1.00421 0.112081 0)
(0.983503 0.0829067 0)
(0.972512 0.0669988 0)
(0.950655 0.0385124 0)
(0.94969 0.0192081 0)
(0.941852 -0.0234125 0)
(0.97227 -0.0622256 0)
(0.993832 -0.120583 0)
(1.05919 -0.175231 0)
(1.09108 -0.213067 0)
(1.16777 -0.274126 0)
(1.18682 -0.243876 0)
(1.23999 -0.280732 0)
(1.23796 -0.156114 0)
(1.15527 -0.111486 0)
(1.18129 -0.0880257 0)
(1.20071 -0.057737 0)
(1.21097 -0.0241212 0)
(1.21157 0.00918396 0)
(1.20371 0.0393562 0)
(1.18947 0.0648019 0)
(1.17099 0.0848917 0)
(1.15009 0.0996954 0)
(1.12812 0.109574 0)
(1.10608 0.115103 0)
(1.08453 0.1168 0)
(1.06394 0.115196 0)
(1.04455 0.110647 0)
(1.02666 0.103556 0)
(1.01019 0.0941822 0)
(0.995352 0.0827928 0)
(0.982298 0.0693354 0)
(0.971755 0.0539531 0)
(0.96374 0.0368688 0)
(0.958031 0.0190019 0)
(0.953539 0.00105728 0)
(0.950121 -0.0166274 0)
(0.948504 -0.0346477 0)
(0.951275 -0.05478 0)
(0.961337 -0.077676 0)
(0.98135 -0.105394 0)
(1.01175 -0.134976 0)
(1.05077 -0.166938 0)
(1.09444 -0.191733 0)
(1.13742 -0.205579 0)
(1.17575 -0.193122 0)
(1.20469 -0.153953 0)
(1.22372 -0.0886024 0)
(1.22649 -0.0140954 0)
(1.21648 0.0527647 0)
(1.18995 0.104844 0)
(1.15955 0.131459 0)
(1.12266 0.147207 0)
(1.09058 0.141809 0)
(1.05803 0.138405 0)
(1.0311 0.118483 0)
(1.01122 0.104533 0)
(0.991435 0.0772684 0)
(0.981946 0.0611613 0)
(0.961302 0.0343224 0)
(0.958986 0.0172293 0)
(0.948782 -0.0200823 0)
(0.975059 -0.0536057 0)
(0.993324 -0.105751 0)
(1.05803 -0.158511 0)
(1.0894 -0.194125 0)
(1.16867 -0.257542 0)
(1.19159 -0.231239 0)
(1.24829 -0.271187 0)
(1.25343 -0.15636 0)
(1.15054 -0.0959859 0)
(1.17185 -0.0755806 0)
(1.18738 -0.0498634 0)
(1.19543 -0.0214073 0)
(1.1957 0.0070739 0)
(1.18905 0.0333481 0)
(1.17699 0.0560159 0)
(1.1611 0.0743672 0)
(1.14282 0.0882771 0)
(1.1233 0.0978879 0)
(1.10344 0.103581 0)
(1.0838 0.105723 0)
(1.06486 0.104757 0)
(1.04688 0.100985 0)
(1.0302 0.0947437 0)
(1.01486 0.0862436 0)
(1.00106 0.075787 0)
(0.98884 0.0634393 0)
(0.978846 0.049362 0)
(0.971262 0.0335857 0)
(0.966227 0.0167136 0)
(0.962777 -0.000615213 0)
(0.960433 -0.0177619 0)
(0.959091 -0.0345998 0)
(0.960711 -0.0523853 0)
(0.967829 -0.071535 0)
(0.983531 -0.0947736 0)
(1.00879 -0.12005 0)
(1.04269 -0.149099 0)
(1.08189 -0.172937 0)
(1.1218 -0.18785 0)
(1.15954 -0.178159 0)
(1.19017 -0.142997 0)
(1.21265 -0.0832689 0)
(1.2186 -0.0149218 0)
(1.21176 0.0456501 0)
(1.18753 0.0936702 0)
(1.15946 0.118003 0)
(1.12436 0.133706 0)
(1.09416 0.129083 0)
(1.06323 0.126875 0)
(1.03711 0.109364 0)
(1.01781 0.0969495 0)
(0.998794 0.071891 0)
(0.990671 0.0556841 0)
(0.9718 0.0300597 0)
(0.968747 0.0146053 0)
(0.95672 -0.0178592 0)
(0.978598 -0.0461051 0)
(0.992713 -0.0913709 0)
(1.05528 -0.141489 0)
(1.08537 -0.174452 0)
(1.16568 -0.239279 0)
(1.19222 -0.216965 0)
(1.25172 -0.259643 0)
(1.26404 -0.155205 0)
(1.14299 -0.0826069 0)
(1.16062 -0.0650441 0)
(1.17337 -0.043238 0)
(1.18005 -0.0191056 0)
(1.18043 0.00529005 0)
(1.17506 0.0281644 0)
(1.165 0.0482946 0)
(1.15146 0.0649487 0)
(1.13559 0.077883 0)
(1.11835 0.0870877 0)
(1.10056 0.0927955 0)
(1.08276 0.0952483 0)
(1.06544 0.0947999 0)
(1.04887 0.0917061 0)
(1.03342 0.0862525 0)
(1.01917 0.0786021 0)
(1.00639 0.0690434 0)
(0.995068 0.0577206 0)
(0.985706 0.0448591 0)
(0.978504 0.0304143 0)
(0.973876 0.014706 0)
(0.971163 -0.00181706 0)
(0.969937 -0.0184535 0)
(0.969549 -0.034491 0)
(0.97121 -0.0506019 0)
(0.976643 -0.0667516 0)
(0.988731 -0.0860613 0)
(1.00873 -0.107272 0)
(1.03659 -0.133219 0)
(1.07033 -0.155511 0)
(1.10662 -0.170433 0)
(1.14387 -0.162376 0)
(1.17624 -0.130464 0)
(1.20172 -0.0763183 0)
(1.21007 -0.0144935 0)
(1.20572 0.0394099 0)
(1.18361 0.0830544 0)
(1.1579 0.104989 0)
(1.12488 0.120493 0)
(1.09664 0.116709 0)
(1.06767 0.115458 0)
(1.04263 0.100271 0)
(1.02402 0.0893305 0)
(1.00564 0.0667149 0)
(0.998588 0.0506608 0)
(0.981859 0.025946 0)
(0.97876 0.0115567 0)
(0.965702 -0.016714 0)
(0.983301 -0.0399802 0)
(0.992663 -0.0779464 0)
(1.05141 -0.124612 0)
(1.07936 -0.154482 0)
(1.1589 -0.219599 0)
(1.18867 -0.201158 0)
(1.24984 -0.246147 0)
(1.26912 -0.152567 0)
(1.13449 -0.07101 0)
(1.14921 -0.0559667 0)
(1.15989 -0.0374736 0)
(1.16565 -0.0169915 0)
(1.16623 0.0039042 0)
(1.162 0.0237771 0)
(1.1537 0.04157 0)
(1.14222 0.0565715 0)
(1.1285 0.0684731 0)
(1.11336 0.0771607 0)
(1.09751 0.0827559 0)
(1.08147 0.0853992 0)
(1.06573 0.0853611 0)
(1.05055 0.0828499 0)
(1.03631 0.0781118 0)
(1.02314 0.0712744 0)
(1.01135 0.0625898 0)
(1.00093 0.0522321 0)
(0.992271 0.0404846 0)
(0.985494 0.0273143 0)
(0.981138 0.0128586 0)
(0.978854 -0.00263952 0)
(0.978513 -0.0185891 0)
(0.97929 -0.0339267 0)
(0.981792 -0.0488577 0)
(0.986764 -0.062834 0)
(0.996365 -0.0790878 0)
(1.01178 -0.0968595 0)
(1.03372 -0.119706 0)
(1.06202 -0.139753 0)
(1.09482 -0.153384 0)
(1.13157 -0.145763 0)
(1.16495 -0.116531 0)
(1.19203 -0.0681161 0)
(1.20143 -0.0131737 0)
(1.19862 0.033862 0)
(1.17837 0.0729895 0)
(1.155 0.0925253 0)
(1.12432 0.107681 0)
(1.09811 0.104803 0)
(1.07133 0.104302 0)
(1.04763 0.091296 0)
(1.02987 0.0817008 0)
(1.01207 0.0616537 0)
(1.00569 0.046114 0)
(0.991214 0.0221818 0)
(0.988705 0.00838382 0)
(0.975577 -0.0164741 0)
(0.989456 -0.0353645 0)
(0.993894 -0.0659812 0)
(1.04717 -0.108416 0)
(1.0721 -0.134759 0)
(1.14879 -0.198887 0)
(1.18118 -0.18405 0)
(1.24248 -0.230869 0)
(1.26824 -0.148412 0)
(1.1261 -0.0609147 0)
(1.13846 -0.0480572 0)
(1.1475 -0.0323801 0)
(1.15253 -0.014995 0)
(1.15329 0.00288584 0)
(1.15 0.0200977 0)
(1.14317 0.0357404 0)
(1.13347 0.0491501 0)
(1.12166 0.0599908 0)
(1.10841 0.068081 0)
(1.09436 0.0734597 0)
(1.07998 0.0761889 0)
(1.06575 0.0764652 0)
(1.05194 0.0744489 0)
(1.0389 0.0703511 0)
(1.02679 0.0642772 0)
(1.01595 0.05644 0)
(1.0064 0.0470088 0)
(0.998474 0.0362898 0)
(0.992193 0.0242987 0)
(0.988102 0.0110953 0)
(0.986053 -0.0032163 0)
(0.986271 -0.0182254 0)
(0.988029 -0.0327433 0)
(0.991603 -0.0467352 0)
(0.996904 -0.0592392 0)
(1.00519 -0.0733772 0)
(1.01737 -0.0885087 0)
(1.03467 -0.108375 0)
(1.05866 -0.125509 0)
(1.08854 -0.136673 0)
(1.12431 -0.128626 0)
(1.1571 -0.101861 0)
(1.18375 -0.059381 0)
(1.19268 -0.0114991 0)
(1.19052 0.0287766 0)
(1.17197 0.0634661 0)
(1.15091 0.0807224 0)
(1.12284 0.095391 0)
(1.09868 0.0934605 0)
(1.07422 0.0935425 0)
(1.05208 0.0825436 0)
(1.03535 0.0741197 0)
(1.01818 0.0566194 0)
(1.01207 0.0419929 0)
(0.999679 0.0189052 0)
(0.998207 0.00539936 0)
(0.985977 -0.0168318 0)
(0.99709 -0.0322067 0)
(0.997014 -0.0558835 0)
(1.0435 -0.0934696 0)
(1.06463 -0.115911 0)
(1.13624 -0.177673 0)
(1.17036 -0.166047 0)
(1.22974 -0.214139 0)
(1.26135 -0.142766 0)
(1.11827 -0.0521052 0)
(1.12868 -0.0411326 0)
(1.13636 -0.0278501 0)
(1.14074 -0.0131014 0)
(1.14161 0.00217016 0)
(1.13906 0.0170215 0)
(1.13344 0.0306964 0)
(1.12526 0.0425926 0)
(1.11512 0.0523718 0)
(1.10357 0.0598125 0)
(1.09117 0.0648947 0)
(1.07835 0.0676214 0)
(1.06555 0.068127 0)
(1.05305 0.0665268 0)
(1.04118 0.062997 0)
(1.03012 0.0576284 0)
(1.0202 0.0506023 0)
(1.01147 0.0420666 0)
(1.00427 0.0323162 0)
(0.998539 0.0214105 0)
(0.994769 0.00939894 0)
(0.992899 -0.00365409 0)
(0.993412 -0.0175093 0)
(0.995785 -0.0310069 0)
(1.0002 -0.0440925 0)
(1.00605 -0.0555727 0)
(1.01387 -0.068321 0)
(1.02435 -0.0814876 0)
(1.0389 -0.0985126 0)
(1.06022 -0.11232 0)
(1.08771 -0.120375 0)
(1.12152 -0.111637 0)
(1.15178 -0.0874387 0)
(1.17611 -0.0509736 0)
(1.18347 -0.00999224 0)
(1.18143 0.0239822 0)
(1.16457 0.0545142 0)
(1.14583 0.0697009 0)
(1.12059 0.0837452 0)
(1.09849 0.082756 0)
(1.0764 0.0832916 0)
(1.05595 0.0741124 0)
(1.04041 0.0666794 0)
(1.02405 0.0515542 0)
(1.01788 0.0381864 0)
(1.00721 0.0161671 0)
(1.00693 0.00286449 0)
(0.996362 -0.0173911 0)
(1.00588 -0.0302437 0)
(1.00232 -0.0478499 0)
(1.04137 -0.0802716 0)
(1.05817 -0.0985994 0)
(1.12252 -0.156646 0)
(1.1571 -0.147773 0)
(1.21218 -0.196446 0)
(1.24892 -0.135708 0)
(1.11114 -0.044414 0)
(1.1199 -0.0350689 0)
(1.12642 -0.0238206 0)
(1.13023 -0.0113233 0)
(1.13113 0.0016849 0)
(1.12914 0.0144468 0)
(1.12451 0.0263333 0)
(1.11762 0.0368085 0)
(1.10893 0.0455483 0)
(1.0989 0.0523124 0)
(1.088 0.0570402 0)
(1.07662 0.0596925 0)
(1.06518 0.0603534 0)
(1.05391 0.0590985 0)
(1.04318 0.0560696 0)
(1.03313 0.0513465 0)
(1.0241 0.0450849 0)
(1.01616 0.0374106 0)
(1.00965 0.0285842 0)
(1.00448 0.0186949 0)
(1.00109 0.0078027 0)
(0.999423 -0.00399765 0)
(1.00009 -0.0165878 0)
(1.00273 -0.0289092 0)
(1.00755 -0.0410238 0)
(1.01379 -0.0516701 0)
(1.02158 -0.0633952 0)
(1.03153 -0.0749765 0)
(1.04493 -0.0892831 0)
(1.06481 -0.0997494 0)
(1.09007 -0.104749 0)
(1.12083 -0.095605 0)
(1.14715 -0.0741926 0)
(1.16805 -0.0435342 0)
(1.17349 -0.00892573 0)
(1.17147 0.0194557 0)
(1.15646 0.0462189 0)
(1.14003 0.0595789 0)
(1.11775 0.0728624 0)
(1.09772 0.0727429 0)
(1.07796 0.0736318 0)
(1.05926 0.0660811 0)
(1.04501 0.0594889 0)
(1.02968 0.0464564 0)
(1.02332 0.0345627 0)
(1.01392 0.0139149 0)
(1.0147 0.000956384 0)
(1.00616 -0.0177552 0)
(1.01521 -0.0290337 0)
(1.0096 -0.0417875 0)
(1.04143 -0.0691365 0)
(1.05375 -0.0834381 0)
(1.10901 -0.136641 0)
(1.14247 -0.130055 0)
(1.19097 -0.178375 0)
(1.23223 -0.127332 0)
(1.10469 -0.037702 0)
(1.11206 -0.0297613 0)
(1.11758 -0.0202549 0)
(1.12088 -0.00968649 0)
(1.12175 0.00136252 0)
(1.12019 0.0122828 0)
(1.11638 0.0225555 0)
(1.11056 0.0317119 0)
(1.10313 0.0394521 0)
(1.09444 0.045533 0)
(1.0849 0.0498684 0)
(1.07485 0.05239 0)
(1.06466 0.0531432 0)
(1.05457 0.0521707 0)
(1.04491 0.0495819 0)
(1.03583 0.0454463 0)
(1.02766 0.039897 0)
(1.02048 0.0330434 0)
(1.01461 0.0251016 0)
(1.00998 0.0161794 0)
(1.007 0.00634599 0)
(1.00559 -0.00424946 0)
(1.00636 -0.0155597 0)
(1.00905 -0.0266454 0)
(1.0139 -0.0377191 0)
(1.02023 -0.0475445 0)
(1.02806 -0.0583038 0)
(1.03804 -0.0684168 0)
(1.05107 -0.0801525 0)
(1.06997 -0.0876441 0)
(1.09277 -0.0901649 0)
(1.11977 -0.081153 0)
(1.14164 -0.06265 0)
(1.159 -0.0372793 0)
(1.16281 -0.00830749 0)
(1.161 0.0152956 0)
(1.14799 0.0386893 0)
(1.13382 0.0504472 0)
(1.11451 0.0628383 0)
(1.09651 0.0634555 0)
(1.07899 0.0646158 0)
(1.06203 0.0584997 0)
(1.04908 0.0526502 0)
(1.03501 0.0413838 0)
(1.02851 0.0310204 0)
(1.01998 0.0120243 0)
(1.02151 -0.000313409 0)
(1.01496 -0.0176404 0)
(1.0243 -0.0280652 0)
(1.01816 -0.0373262 0)
(1.04371 -0.0601237 0)
(1.05186 -0.0708773 0)
(1.09696 -0.118515 0)
(1.1278 -0.11375 0)
(1.16825 -0.160444 0)
(1.21342 -0.117723 0)
(1.09889 -0.0318488 0)
(1.1051 -0.0251241 0)
(1.10976 -0.0171069 0)
(1.11258 -0.00819881 0)
(1.11339 0.00115316 0)
(1.11216 0.0104548 0)
(1.109 0.0192794 0)
(1.10409 0.0272231 0)
(1.09774 0.0340163 0)
(1.09022 0.0394238 0)
(1.0819 0.0433455 0)
(1.07306 0.045695 0)
(1.06403 0.0464885 0)
(1.05503 0.0457428 0)
(1.04639 0.0435397 0)
(1.03823 0.0399361 0)
(1.03088 0.0350472 0)
(1.02442 0.0289669 0)
(1.01916 0.0218724 0)
(1.01505 0.0138758 0)
(1.01247 0.00505318 0)
(1.01132 -0.00439838 0)
(1.01218 -0.0144734 0)