/*--------------------------------*- C++ -*----------------------------------*\
  =========                 |
  \\      /  F ield         | OpenFOAM: The Open Source CFD Toolbox
   \\    /   O peration     | Website:  https://openfoam.org
    \\  /    A nd           | Version:  7
     \\/     M anipulation  |
\*---------------------------------------------------------------------------*/
FoamFile
{
    version     2.0;
    format      ascii;
    class       surfaceScalarField;
    location    "35";
    object      phi;
}
// * * * * * * * * * * * * * * * * * * * * * * * * * * * * * * * * * * * * * //

dimensions      [0 3 -1 0 0 0 0];

internalField   nonuniform List<scalar> 
3855
(
1.36024e-05
0.000424565
0.00119612
1.44233e-05
0.000410141
4.48249e-05
0.00116572
0.00186435
1.51719e-05
0.000394969
4.79819e-05
0.00113291
8.6568e-05
0.00182576
0.000120558
0.00243314
0.0029283
1.5843e-05
0.000379127
5.09219e-05
0.00109783
9.34162e-05
0.00178327
0.000132579
0.00239398
0.000160951
0.00289992
0.00329322
1.64319e-05
0.000362695
5.36238e-05
0.00106064
9.98939e-05
0.001737
0.000144195
0.00234968
0.000178449
0.00286567
0.000198729
0.00327294
0.000204859
0.00358068
0.00381157
1.69344e-05
0.00034576
5.60672e-05
0.0010215
0.000105954
0.00168711
0.000155332
0.0023003
0.000195536
0.00282546
0.000221946
0.00324653
0.000233846
0.00356878
0.000233172
0.00381225
0.00022296
0.00400249
0.00416305
1.7347e-05
0.000328413
5.82326e-05
0.000980617
0.000111549
0.00163379
0.00016591
0.00224594
0.000212107
0.00277927
0.000244813
0.00321383
0.000262715
0.00355088
0.000267415
0.00380755
0.000261886
0.00400802
0.000249178
0.00417576
0.000231675
0.00432905
0.00448
1.76667e-05
0.000310747
6.01021e-05
0.000938181
0.000116632
0.00157727
0.000175848
0.00218673
0.000228054
0.00272706
0.000267209
0.00317467
0.000291349
0.00352674
0.000301677
0.00379722
0.000301055
0.00400864
0.000292629
0.00418418
0.000278979
0.0043427
0.000261838
0.00449714
0.00024218
0.00465517
0.000220464
0.00482082
0.00499605
1.78914e-05
0.000292855
6.16599e-05
0.000894413
0.000121158
0.00151777
0.000185063
0.00212282
0.000243261
0.00266886
0.000288997
0.00312894
0.000319613
0.00349612
0.000335843
0.00378099
0.000340374
0.00400411
0.000336418
0.00418814
0.000326748
0.00435237
0.000313307
0.00451058
0.000297238
0.00467124
0.000279111
0.00483895
0.000259157
0.00501601
0.000237438
0.00520356
0.000213944
0.0054023
0.00561279
1.80199e-05
0.000274835
6.28922e-05
0.00084954
0.000125086
0.00145557
0.000193473
0.00205443
0.000257604
0.00260473
0.000310034
0.00307651
0.00034736
0.00345879
0.000369777
0.00375857
0.000379733
0.00399416
0.000380464
0.00418741
0.000374921
0.00435792
0.000365269
0.00452024
0.000352839
0.00468367
0.000338329
0.00485346
0.000322045
0.00503229
0.00030409
0.00522151
0.000284475
0.00542191
0.000263172
0.00563409
0.000240142
0.00585865
0.000215344
0.00609625
0.00634745
1.80519e-05
0.000256784
6.37884e-05
0.000803804
0.000128374
0.00139099
0.000200994
0.00198181
0.000270959
0.00253477
0.000330163
0.0030173
0.000374426
0.00341453
0.000403329
0.00372967
0.000419007
0.00397848
0.00042467
0.00418174
0.000423428
0.00435916
0.000417672
0.00452599
0.00040894
0.0046924
0.000398079
0.00486432
0.000385483
0.00504489
0.000371306
0.00523569
0.000355583
0.00543763
0.000338305
0.00565137
0.000319443
0.00587751
0.000298969
0.00611672
0.00636957
1.7988e-05
0.000238795
6.43409e-05
0.000757451
0.000130991
0.00132434
0.000207548
0.00190526
0.000283198
0.00245912
0.000349219
0.00295128
0.00040063
0.00336312
0.000436328
0.00369397
0.000458051
0.00395676
0.000468922
0.00417087
0.000472184
0.00435589
0.000470454
0.00452772
0.000465494
0.00469736
0.000458318
0.0048715
0.000449431
0.00505377
0.000439044
0.00524608
0.000427225
0.00544945
0.000413983
0.00566461
0.000399304
0.00589219
0.000383169
0.00613286
0.00638719
1.78302e-05
0.000220965
6.45457e-05
0.000710735
0.000132906
0.00125598
0.000213062
0.0018251
0.00029419
0.00237799
0.000367026
0.00287845
0.000425776
0.00330437
0.00046858
0.00365117
0.000496697
0.00392864
0.000513089
0.00415448
0.000521091
0.00434789
0.000523543
0.00452527
0.000522443
0.00469846
0.000519001
0.00487494
0.000513845
0.00505893
0.00050726
0.00525266
0.000499355
0.00545736
0.00049016
0.0056738
0.000479674
0.00590268
0.000467891
0.00614464
0.00640028
1.75813e-05
0.000203384
6.44028e-05
0.000663914
0.000134099
0.00118628
0.000217468
0.00174173
0.000303809
0.00229165
0.000383403
0.00279885
0.00044965
0.00323812
0.000499872
0.00360095
0.000534753
0.00389376
0.000557014
0.00413222
0.000570032
0.00433487
0.000576853
0.00451845
0.000579727
0.00469559
0.000580076
0.00487459
0.00057868
0.00506033
0.000575912
0.00525543
0.000571928
0.00546134
0.000566786
0.00567895
0.000560502
0.00590896
0.000553079
0.00615206
1.72451e-05
0.000186139
6.39163e-05
0.000617243
0.000134557
0.00111564
0.000220708
0.00165558
0.000311934
0.00220042
0.000398166
0.00271262
0.000472025
0.00316426
0.000529966
0.00354301
0.000572
0.00385172
0.000600515
0.00410371
0.000618867
0.00431652
0.000630283
0.00450704
0.00063727
0.0046886
0.000641487
0.00487037
0.000643887
0.00505793
0.000644951
0.00525437
0.000644897
0.0054614
0.000643812
0.00568003
0.000641734
0.00591104
0.00615512
1.68267e-05
0.000169312
6.30948e-05
0.000570975
0.000134273
0.00104446
0.000222737
0.00156712
0.000318452
0.00210471
0.00041113
0.00261994
0.000492663
0.00308273
0.0005586
0.00347707
0.00060819
0.00380213
0.000643381
0.00406851
0.000667431
0.00429247
0.000683712
0.00449075
0.000694986
0.00467733
0.000703168
0.00486219
0.000709411
0.00505168
0.000714328
0.00524945
0.000718211
0.00545751
0.000721188
0.00567705
0.000723318
0.00590891
0.00615381
1.63321e-05
0.00015298
6.19509e-05
0.000525356
0.000133255
0.000973158
0.000223523
0.00147685
0.000323264
0.00200497
0.000422113
0.00252109
0.000511316
0.00299353
0.000585493
0.00340289
0.000643044
0.00374458
0.000685368
0.00402619
0.00071553
0.00426231
0.000736996
0.00446929
0.000752771
0.00466155
0.000765044
0.00484992
0.000775194
0.00504153
0.000783992
0.00524065
0.000791821
0.00544968
0.000798862
0.00567001
0.0008052
0.00590257
0.00614812
1.5768e-05
0.000137212
6.05018e-05
0.000480622
0.000131516
0.000902144
0.000223049
0.00138532
0.000326284
0.00190173
0.000430945
0.00241643
0.000527729
0.00289674
0.000610342
0.00332028
0.000676253
0.00367867
0.000726194
0.00397625
0.000762934
0.00422557
0.00078996
0.00444226
0.0008105
0.00464101
0.000827025
0.0048334
0.000841168
0.00502739
0.000853884
0.00522794
0.000865674
0.00543789
0.000876781
0.00565891
0.000887325
0.00589203
0.00613807
1.5142e-05
0.00012207
5.87685e-05
0.000436995
0.000129082
0.00083183
0.000221316
0.00129308
0.000327451
0.0017956
0.000437467
0.00230642
0.000541652
0.00279256
0.000632828
0.0032291
0.000707474
0.00360403
0.000765539
0.00391818
0.000809372
0.00418174
0.000842397
0.00440924
0.000868022
0.00461539
0.000889003
0.00481241
0.000907254
0.00500914
0.000923944
0.00521125
0.000939714
0.00542212
0.000954891
0.00564373
0.00096964
0.00587728
0.000984049
0.00612366
0.00638361
1.44625e-05
0.000107608
5.67757e-05
0.000394682
0.00012599
0.000762616
0.000218345
0.00120073
0.000326727
0.00168721
0.000441546
0.0021916
0.000552841
0.00268126
0.000652623
0.00312932
0.000736339
0.00352031
0.000803042
0.00385148
0.00085453
0.00413025
0.000894056
0.00436971
0.000925152
0.00458429
0.000950849
0.00478672
0.000973359
0.00498663
0.000994098
0.00519051
0.00101388
0.00540234
0.00103314
0.00562447
0.00105209
0.00585833
0.00107085
0.0061049
0.00636496
1.37382e-05
9.38694e-05
5.45514e-05
0.000353869
0.000122283
0.000694884
0.000214175
0.00110884
0.000324102
0.00157729
0.000443075
0.00207263
0.000561069
0.00256327
0.000669392
0.003021
0.000762451
0.00342725
0.000838299
0.00377563
0.000898042
0.00407051
0.000944641
0.00432311
0.000981669
0.00454726
0.0010124
0.00475598
0.00103937
0.00495966
0.00106427
0.00516561
0.00108811
0.0053785
0.00111146
0.00560113
0.00113461
0.00583518
0.00115772
0.00608179
0.00634179
1.2978e-05
8.08914e-05
5.21261e-05
0.000314721
0.000118017
0.000628993
0.000208866
0.00101799
0.000319596
0.00146656
0.00044198
0.00195024
0.000566134
0.00243911
0.000682806
0.00290433
0.000785393
0.00332466
0.000870865
0.00369016
0.000939493
0.00400188
0.000993799
0.00426881
0.0010373
0.00450376
0.00107347
0.00471981
0.00110516
0.00492798
0.00113435
0.00513641
0.00116232
0.00535053
0.00118979
0.00557366
0.00121714
0.00580783
0.00124459
0.00605434
0.00631411
1.21911e-05
6.87003e-05
4.95324e-05
0.00027738
0.000113254
0.000565271
0.000202497
0.000928743
0.000313263
0.00135579
0.000438232
0.00182527
0.000567871
0.00230947
0.000692554
0.00277964
0.000804738
0.00321248
0.000900256
0.00359464
0.000978407
0.00392373
0.00104112
0.0042061
0.00109171
0.00445316
0.00113381
0.00467771
0.00117054
0.00489125
0.00120424
0.00510272
0.00123644
0.00531833
0.00126807
0.00554203
0.00129963
0.00577627
0.00133142
0.00602255
0.00628195
1.13865e-05
5.73138e-05
4.6804e-05
0.000241962
0.000108062
0.000504013
0.000195163
0.000841642
0.000305191
0.00124576
0.000431846
0.00169862
0.000566161
0.00217516
0.000698353
0.00264745
0.000820059
0.00309077
0.000925959
0.00348874
0.00101426
0.00383543
0.00108611
0.00413424
0.00114452
0.00439476
0.00119312
0.00462911
0.00123532
0.00484905
0.00127378
0.00506426
0.00131035
0.00528175
0.00134621
0.00550618
0.00138201
0.00574047
0.00141812
0.00598644
0.0062453
1.05731e-05
4.67407e-05
4.39751e-05
0.00020856
0.000102514
0.000445475
0.000186974
0.000757181
0.000295497
0.00113724
0.000422888
0.00157123
0.000560944
0.0020371
0.000699965
0.00250843
0.000830944
0.0029598
0.000947438
0.00337225
0.00104646
0.00373641
0.00112823
0.00405247
0.00119525
0.00432774
0.00125104
0.00457331
0.00129922
0.00480088
0.00134279
0.00502069
0.00138394
0.00524059
0.00142412
0.005466
0.00146419
0.0057004
0.00150464
0.00594599
0.00620418
9.75914e-06
3.69816e-05
4.10797e-05
0.000177239
9.66848e-05
0.00038987
0.000178055
0.000675811
0.000284332
0.00103096
0.000411476
0.00144408
0.000552222
0.00189636
0.000697215
0.00236344
0.000837015
0.00282
0.000964153
0.00324511
0.00107439
0.00362618
0.00116685
0.00396
0.00124333
0.00425126
0.00130712
0.00450952
0.00136192
0.00474608
0.00141103
0.00497157
0.00145704
0.00519459
0.0015017
0.00542134
0.0015461
0.00565599
0.00159091
0.00590118
0.00615861
8.95255e-06
2.80291e-05
3.81509e-05
0.000148041
9.06521e-05
0.000337368
0.000168535
0.000597928
0.000271871
0.000927626
0.000397777
0.00131818
0.000540074
0.00175406
0.00069
0.00221351
0.000837949
0.00267205
0.000975577
0.00310748
0.00109738
0.00350437
0.00120127
0.00385611
0.00128813
0.0041644
0.00136081
0.00443684
0.00142299
0.00468391
0.00147822
0.00491634
0.00152945
0.00514336
0.0015788
0.005372
0.00162765
0.00560714
0.00167685
0.00585198
0.00610857
8.16043e-06
1.98686e-05
3.52199e-05
0.000120982
8.44914e-05
0.000288097
0.000158553
0.000523866
0.00025831
0.000827869
0.000382009
0.00119448
0.000524653
0.00161142
0.00067831
0.00205986
0.000833501
0.00251685
0.00098122
0.00295976
0.00111477
0.00337082
0.00123073
0.00374015
0.0013289
0.00406623
0.00141147
0.00435427
0.00148192
0.00461346
0.00154398
0.00485428
0.00160092
0.00508642
0.00165525
0.00531766
0.0017087
0.00555369
0.00176236
0.00579832
0.00181688
0.00605405
0.00632247
7.38913e-06
1.24795e-05
3.23158e-05
9.6055e-05
7.82758e-05
0.000242137
0.000148247
0.000453895
0.000243861
0.000732256
0.000364429
0.00107391
0.000506187
0.00146966
0.000662237
0.00190381
0.000823525
0.00235557
0.000980663
0.00280262
0.00112589
0.00322559
0.00125443
0.00361162
0.0013648
0.00395586
0.00145832
0.00426074
0.00153808
0.0045337
0.00160781
0.00478455
0.00167109
0.00502314
0.00173082
0.00525793
0.00178911
0.0054954
0.00184734
0.00574009
0.00190638
0.00599502
0.0062621
6.64417e-06
5.83532e-06
2.94652e-05
7.3234e-05
7.20742e-05
0.000199528
0.000137753
0.000388217
0.000228743
0.000641266
0.000345329
0.000957322
0.000484978
0.00133001
0.000641979
0.00174681
0.000807997
0.00218955
0.000973585
0.00263704
0.00113014
0.00306904
0.00127154
0.00347022
0.00139492
0.00383248
0.00150049
0.00415517
0.0015907
0.0044435
0.00166912
0.00470612
0.00173953
0.00495273
0.00180521
0.00519226
0.00186867
0.00543195
0.00193166
0.0056771
0.00199529
0.00593139
0.00619712
5.93021e-06
-9.48877e-08
2.66918e-05
5.24724e-05
6.59504e-05
0.000160269
0.000127201
0.000326966
0.000213179
0.000555288
0.000325023
0.000845478
0.000461388
0.00119365
0.000617844
0.00159035
0.000787034
0.00202036
0.000959796
0.00246427
0.00112698
0.00290186
0.00128125
0.00331595
0.00141827
0.00369545
0.00153696
0.00403648
0.00163885
0.0043416
0.00172716
0.00461782
0.00180568
0.00487421
0.00187802
0.00511992
0.00194712
0.00536285
0.00201513
0.00560909
0.00208349
0.00586303
0.00612748
5.25116e-06
-5.34605e-06
2.40161e-05
3.37075e-05
5.99621e-05
0.000124323
0.000116715
0.000270213
0.000197386
0.000474617
0.000303842
0.000739022
0.000435831
0.00106166
0.00059024
0.00143594
0.000760898
0.0018497
0.000939272
0.0022859
0.00111601
0.00272512
0.0012828
0.00314916
0.00143386
0.00354439
0.00156662
0.00390372
0.00168148
0.00422675
0.00178099
0.00451831
0.0018688
0.0047864
0.00194872
0.00504
0.00202409
0.00528747
0.00209753
0.00553565
0.00217082
0.00578974
0.00605309
4.60994e-06
-9.95599e-06
2.14555e-05
1.68619e-05
5.41601e-05
9.16187e-05
0.000106406
0.000217967
0.000181572
0.000399452
0.000282113
0.00063848
0.000408754
0.000935015
0.000559666
0.00128503
0.000730002
0.00167937
0.000912173
0.00210373
0.00109702
0.00254027
0.00127556
0.00297062
0.0014407
0.00337925
0.00158829
0.00375613
0.00171736
0.00409768
0.0018295
0.00440617
0.00192797
0.00468794
0.00201661
0.00495136
0.00209911
0.00520497
0.00217852
0.00545625
0.00225708
0.00571118
0.00233638
0.00597378
0.00624798
4.00895e-06
-1.39649e-05
1.90247e-05
1.84619e-06
4.85884e-05
6.20549e-05
9.63758e-05
0.000170179
0.00016593
0.000329898
0.000260161
0.00054425
0.000380622
0.000814553
0.000526688
0.00113896
0.000694898
0.00151116
0.00087886
0.00191977
0.00107
0.00234913
0.00125907
0.00278155
0.00143789
0.00320044
0.00160076
0.00359325
0.00174514
0.0039533
0.00187139
0.00427991
0.00198206
0.00457727
0.0020808
0.00485261
0.00217151
0.00511426
0.00225766
0.0053701
0.00234196
0.00562688
0.00242644
0.0058893
0.00616218
3.44991e-06
-1.74148e-05
1.67352e-05
-1.14391e-05
4.32841e-05
3.55061e-05
8.67111e-05
0.000126752
0.000150635
0.000265973
0.000238288
0.000456597
0.000351901
0.00070094
0.000491921
0.000998943
0.000656258
0.00134682
0.000839894
0.00173613
0.00103521
0.00215382
0.0012331
0.00258366
0.00142468
0.00300886
0.00160285
0.00341509
0.00176339
0.00379277
0.00190517
0.00413812
0.0020297
0.00445275
0.00214015
0.00474216
0.00224043
0.00501398
0.00233434
0.00527619
0.00242507
0.00553615
0.00251514
0.00579923
0.00607128
2.934e-06
-2.03489e-05
1.45963e-05
-2.31014e-05
3.82774e-05
1.1825e-05
7.74868e-05
8.7543e-05
0.000135842
0.000207618
0.000216777
0.000375662
0.000323041
0.000594676
0.000455998
0.000865986
0.000614844
0.00118797
0.000796019
0.00155495
0.000993142
0.00195669
0.00119773
0.00237907
0.00140058
0.002806
0.00159351
0.00322216
0.00177065
0.00361562
0.0019292
0.00397957
0.00206928
0.00431267
0.00219325
0.00461819
0.00230473
0.0049025
0.00240772
0.0051732
0.00250583
0.00543804
0.0026021
0.00570296
0.00269845
0.00597492
0.0062519
2.46193e-06
-2.28108e-05
1.26146e-05
-3.32541e-05
3.35922e-05
-9.1526e-06
6.87643e-05
5.23709e-05
0.000121682
0.0001547
0.000195876
0.000301469
0.000294462
0.00049609
0.000419547
0.000740901
0.000571476
0.00103604
0.000748133
0.0013783
0.000944578
0.00176025
0.00115333
0.00217032
0.00136543
0.00259391
0.00157194
0.00301565
0.00176557
0.00342199
0.00194175
0.00380339
0.00209896
0.00415546
0.00223836
0.00447879
0.00236296
0.0047779
0.00247668
0.00505948
0.00258343
0.00533129
0.00268678
0.00559962
0.00278913
0.00587258
0.00614786
2.03397e-06
-2.48447e-05
1.07945e-05
-4.20147e-05
2.92462e-05
-2.76043e-05
6.05921e-05
2.1025e-05
0.000108266
0.000107027
0.000175801
0.000233933
0.000266546
0.000405345
0.000383167
0.00062428
0.000526987
0.000892225
0.000697242
0.00120804
0.00089052
0.00156697
0.00110067
0.00196016
0.00131942
0.00237516
0.00153766
0.00279742
0.00174698
0.00321267
0.00194113
0.00360924
0.00211676
0.00397983
0.00227349
0.00432206
0.00241332
0.00463807
0.00253975
0.00493305
0.00265678
0.00521426
0.00276841
0.00548798
0.00287756
0.00576343
0.00603792
1.65003e-06
-2.64948e-05
9.13846e-06
-4.95031e-05
2.52512e-05
-4.3717e-05
5.30059e-05
-6.72979e-06
9.56785e-05
6.43542e-05
0.000156733
0.000172878
0.000239623
0.000322455
0.000347411
0.000516492
0.000482195
0.00075744
0.000644411
0.00104583
0.000832154
0.00137923
0.0010408
0.00175151
0.00126322
0.00215274
0.00149064
0.00257001
0.00171405
0.00298925
0.00192578
0.00339751
0.00212063
0.00378498
0.00229639
0.00414631
0.00245363
0.00448084
0.00259503
0.00479164
0.00272438
0.00508491
0.00284592
0.00536644
0.00296301
0.00564634
0.00307957
0.00592136
0.00622079
1.3096e-06
-2.78044e-05
7.64657e-06
-5.58401e-05
2.1613e-05
-5.76834e-05
4.60292e-05
-3.1146e-05
8.39841e-05
2.63993e-05
0.000138813
0.000118049
0.000213973
0.000247295
0.000312763
0.000417703
0.000437862
0.000632341
0.000590705
0.000892983
0.000770784
0.00119915
0.00097508
0.00154722
0.00119791
0.00192991
0.00143137
0.00233654
0.00166645
0.00275417
0.0018945
0.00316946
0.00210863
0.00357086
0.00230465
0.00395028
0.00248138
0.00430411
0.00264021
0.00463281
0.00278428
0.00494085
0.0029178
0.00523292
0.00304442
0.00551972
0.00316868
0.0057971
0.00609738
1.01174e-06
-2.88161e-05
6.31697e-06
-6.11453e-05
1.83319e-05
-6.96983e-05
3.9673e-05
-5.24872e-05
7.32232e-05
-7.15087e-06
0.000122145
6.91274e-05
0.000189814
0.000179626
0.000279633
0.000327885
0.000394671
0.000517302
0.000537145
0.000750509
0.000707757
0.00102854
0.000905043
0.00134993
0.00112495
0.00171
0.0013609
0.00210059
0.00160446
0.00251061
0.00184659
0.00292733
0.0020791
0.00333835
0.00229592
0.00373346
0.00249382
0.00410621
0.00267252
0.00445411
0.00283398
0.00477938
0.00298201
0.0050849
0.00312027
0.00538146
0.00325378
0.00566359
0.00596635
0.0033848
7.55035e-07
-2.95712e-05
5.14556e-06
-6.55358e-05
1.54025e-05
-7.99552e-05
3.3937e-05
-7.10217e-05
6.34148e-05
-3.66287e-05
0.000106794
2.57478e-05
0.000167309
0.000119112
0.000248347
0.000246846
0.000353203
0.000412446
0.000484654
0.000619058
0.000644388
0.000868805
0.000832345
0.00116197
0.00104614
0.0014962
0.0012808
0.00186593
0.00152902
0.00226238
0.00178204
0.00267431
0.00203094
0.00308946
0.00226806
0.00349634
0.00248813
0.00388614
0.00268882
0.00425341
0.00287047
0.00459774
0.00303592
0.00491945
0.00318846
0.00522892
0.00333332
0.00551873
0.00582609
0.00347358
5.37542e-07
-3.01087e-05
4.12604e-06
-6.91243e-05
1.28138e-05
-8.8643e-05
2.88089e-05
-8.70168e-05
5.45563e-05
-6.2376e-05
9.2792e-05
-1.2488e-05
0.000146559
6.53448e-05
0.000219147
0.000174258
0.000313926
0.000317668
0.000434031
0.000498953
0.000581893
0.000720942
0.000758636
0.000985231
0.000963442
0.0012914
0.00119307
0.0016363
0.00144176
0.0020137
0.00170165
0.00241442
0.0019638
0.00282731
0.00221951
0.00324062
0.00246169
0.00364397
0.00268583
0.00402927
0.00289022
0.00439335
0.00307621
0.00473346
0.0032462
0.00505892
0.0034051
0.00535982
0.00567431
0.00355688
3.5678e-07
-3.04655e-05
3.24988e-06
-7.20174e-05
1.05494e-05
-9.59425e-05
2.42658e-05
-0.000100733
4.66252e-05
-8.47354e-05
8.01326e-05
-4.59954e-05
0.000127611
1.78669e-05
0.000192184
0.000109684
0.000277182
0.00023267
0.000385919
0.000390216
0.000521331
0.00058553
0.000685468
0.000821095
0.000878876
0.00109799
0.00110002
0.00141516
0.00134489
0.00176882
0.00160707
0.00215224
0.00187829
0.00255609
0.00214954
0.00296937
0.00241241
0.0033811
0.00266038
0.0037813
0.00288944
0.00416428
0.00309895
0.00452396
0.00328988
0.00486799
0.00346626
0.00518344
0.00550821
0.00363236
2.09704e-07
-3.06752e-05
2.50639e-06
-7.43141e-05
8.58776e-06
-0.000102024
2.02743e-05
-0.00011242
3.95803e-05
-0.000104041
6.87793e-05
-7.51944e-05
0.000110457
-2.38111e-05
0.00016753
5.26119e-05
0.000243195
0.000157004
0.000340798
0.000292613
0.000463567
0.00046276
0.000614211
0.000670451
0.000794379
0.000917822
0.00100406
0.00120548
0.00124105
0.00153183
0.0015007
0.0018926
0.00177603
0.00228076
0.00205851
0.00268689
0.00233913
0.00310048
0.00260981
0.00351063
0.00286438
0.00390971
0.00309976
0.00428858
0.00331525
0.00465249
0.0035123
0.0049864
0.0053216
0.0036989
9.27648e-08
-3.0768e-05
1.88297e-06
-7.61043e-05
6.90262e-06
-0.000107044
1.67923e-05
-0.000122309
3.33641e-05
-0.000120613
5.86666e-05
-0.000100497
9.50444e-05
-6.01889e-05
0.000145176
2.48032e-06
0.000212068
9.01128e-05
0.000298979
0.000205702
0.000409249
0.00035249
0.000545997
0.000533703
0.000711685
0.000752134
0.00090757
0.00100959
0.00113312
0.00130628
0.00138555
0.00164017
0.00165964
0.00200667
0.00194802
0.00239851
0.00224195
0.00280655
0.00253247
0.00322011
0.00281183
0.00363035
0.00307397
0.00402643
0.00331796
0.0044085
0.00353735
0.00476701
0.00511085
0.0037481
4.09011e-09
-3.0772e-05
1.36533e-06
-7.74656e-05
5.46385e-06
-0.000111142
1.37695e-05
-0.000130615
2.79049e-05
-0.000134749
4.97042e-05
-0.000122296
8.12752e-05
-9.17599e-05
0.000125048
-4.12926e-05
0.000183797
3.13638e-05
0.000260613
0.000128886
0.000358801
0.000254302
0.000481676
0.000410828
0.000632234
0.000601577
0.000812689
0.000829138
0.00102393
0.00109504
0.00126496
0.00139914
0.0015325
0.00173913
0.00182086
0.00211015
0.0021224
0.002505
0.00242813
0.00291438
0.0027296
0.00332888
0.00301795
0.00373809
0.00329097
0.00413548
0.00354217
0.00451582
0.00489331
0.00375971
-6.76214e-08
-3.07044e-05
9.37132e-07
-7.84703e-05
4.23833e-06
-0.000114443
1.11502e-05
-0.000137527
2.312e-05
-0.000146719
4.17825e-05
-0.000140959
6.90191e-05
-0.000118997
0.000107013
-7.92861e-05
0.000158285
-1.99087e-05
0.000225704
6.14669e-05
0.000312435
0.000167572
0.000421813
0.000301449
0.000557118
0.000466272
0.000721215
0.000665041
0.000916089
0.000900165
0.0011423
0.00117294
0.00139845
0.00148298
0.00168084
0.00182775
0.00198353
0.00220232
0.00229835
0.00259956
0.0026171
0.00301013
0.00292923
0.00342596
0.00323007
0.00383463
0.003517
0.00422889
0.00464769
0.00376261
-1.18843e-07
-3.05856e-05
5.82699e-07
-7.91719e-05
3.19101e-06
-0.000117052
8.87432e-06
-0.00014321
1.89194e-05
-0.000156764
3.47778e-05
-0.000156817
5.81202e-05
-0.000142339
9.08915e-05
-0.000112057
0.000135357
-6.43746e-05
0.000194132
2.69254e-06
0.000270168
9.15355e-05
0.000366694
0.000204923
0.000487066
0.000345899
0.000634519
0.000517588
0.000811797
0.000722887
0.00102068
0.000964055
0.00126145
0.00124221
0.00153238
0.00155682
0.00182956
0.00190514
0.00214642
0.0022827
0.00247574
0.00268081
0.00280696
0.00309474
0.00313221
0.00350938
0.00345228
0.00390882
0.00436871
0.00373126
-1.58035e-07
-3.04275e-05
2.84953e-07
-7.96149e-05
2.28616e-06
-0.000119053
6.88039e-06
-0.000147804
1.52092e-05
-0.000165092
2.85582e-05
-0.000170166
4.84057e-05
-0.000162186
7.64743e-05
-0.000140126
0.000114781
-0.000102681
0.000165675
-4.82016e-05
0.000231857
2.53532e-05
0.000316357
0.000120423
0.000422455
0.000239802
0.000553518
0.000386525
0.000712737
0.000563668
0.000902751
0.000774041
0.00112517
0.00101978
0.00138006
0.00130193
0.00166554
0.00161966
0.00197715
0.00197109
0.00230913
0.00234884
0.00265247
0.0027514
0.00299674
0.00316512
0.00334501
0.00356055
0.00405609
0.00365762
-1.89349e-07
-3.02382e-05
2.95238e-08
-7.98337e-05
1.48854e-06
-0.000120512
5.10716e-06
-0.000151423
1.18949e-05
-0.00017188
2.29891e-05
-0.00018126
3.9695e-05
-0.000178892
6.35325e-05
-0.000163963
9.62844e-05
-0.000135433
0.000140041
-9.19583e-05
0.000197233
-3.18384e-05
0.000270637
4.70183e-05
0.00036335
0.000147089
0.000478691
0.000271184
0.000620036
0.000422323
0.00079054
0.000603537
0.000992759
0.000817565
0.00122819
0.0010665
0.00149676
0.00135109
0.0017963
0.00167155
0.00212272
0.00202241
0.00246966
0.00240446
0.00282566
0.00280912
0.00319455
0.00319165
0.00371255
0.00353809
-2.1753e-07
-3.00207e-05
-2.05617e-07
-7.98456e-05
7.63693e-07
-0.000121481
3.49596e-06
-0.000154155
8.8856e-06
-0.00017727
1.79391e-05
-0.000190314
3.18083e-05
-0.000192762
5.18317e-05
-0.000183987
7.95783e-05
-0.00016318
0.000116893
-0.000129273
0.000165937
-8.08822e-05
0.000229212
-1.62563e-05
0.000309562
6.67391e-05
0.000410136
0.00017061
0.000534288
0.000298171
0.000685398
0.000452427
0.000866596
0.000636367
0.0010804
0.000852696
0.00132819
0.0011033
0.00160991
0.00138983
0.00192315
0.00170917
0.00226463
0.00206298
0.00262366
0.00245008
0.00300344
0.00281187
0.00334376
0.00337224
-2.46126e-07
-2.97745e-05
-4.28757e-07
-7.9663e-05
8.18518e-08
-0.000121992
1.99248e-06
-0.000156066
6.0963e-06
-0.000181374
1.32843e-05
-0.000197502
2.4574e-05
-0.000204051
4.11435e-05
-0.000200556
6.43707e-05
-0.000186407
9.5876e-05
-0.000160779
0.000137563
-0.000122569
0.000191655
-7.03479e-05
0.000260714
-2.31988e-06
0.000347639
8.36847e-05
0.00045562
0.00019019
0.000588038
0.00032001
0.000748278
0.000476127
0.000939473
0.000661501
0.00116405
0.000878724
0.00142363
0.00113025
0.00171739
0.00141541
0.00204491
0.00173546
0.00239776
0.00209723
0.00277748
0.00243215
0.00295825
0.00316299
-2.78682e-07
-2.94959e-05
-6.54727e-07
-7.9287e-05
-5.86682e-07
-0.00012206
5.48153e-07
-0.000157201
3.45081e-06
-0.000184276
8.91276e-06
-0.000202964
1.78347e-05
-0.000212973
3.1255e-05
-0.000213976
5.03831e-05
-0.000205535
7.6638e-05
-0.000187033
0.000111687
-0.000157619
0.000157486
-0.000116147
0.000216309
-6.11424e-05
0.000290765
9.2283e-06
0.000383795
9.71604e-05
0.000498618
0.000205186
0.000638633
0.000336112
0.000807245
0.000492889
0.00100752
0.000678448
0.00124222
0.000895558
0.00151193
0.00114569
0.00181843
0.00142896
0.00215638
0.00175928
0.00252521
0.00206332
0.00256681
0.00291665
-3.18149e-07
-2.91777e-05
-8.942e-07
-7.87109e-05
-1.26345e-06
-0.00012169
-8.78516e-07
-0.000157586
8.83538e-07
-0.000186038
4.727e-06
-0.000206807
1.1452e-05
-0.000219698
2.1976e-05
-0.0002245
3.73618e-05
-0.000220921
5.8851e-05
-0.000208523
8.78995e-05
-0.000186667
0.000126215
-0.000154462
0.000175793
-0.00011072
0.000238945
-5.39239e-05
0.000318315
1.77906e-05
0.000416867
0.000106634
0.000537841
0.000215138
0.00068465
0.00034608
0.000860664
0.000502435
0.00106923
0.000686992
0.00131215
0.000902767
0.00159247
0.00114865
0.00190822
0.00144353
0.00225672
0.00171482
0.00218122
0.00264231
-3.66818e-07
-2.88109e-05
-1.15576e-06
-7.7922e-05
-1.96798e-06
-0.000120878
-2.32102e-06
-0.000157233
-1.65948e-06
-0.0001867
6.46404e-07
-0.000209113
5.3098e-06
-0.000224362
1.31444e-05
-0.000232335
2.50866e-05
-0.000232863
4.22233e-05
-0.000225659
6.58232e-05
-0.000210267
9.73717e-05
-0.000186011
0.000138606
-0.000151955
0.000191549
-0.000106867
0.000258535
-4.91956e-05
0.000342225
2.29444e-05
0.000445594
0.000111769
0.000571884
0.00021979
0.000724496
0.000349823
0.000906949
0.000504539
0.00112196
0.000687757
0.00137299
0.00089762
0.00166119
0.00115533
0.00198218
0.00139383
0.00181269
0.00235072
-4.26317e-07
-2.83846e-05
-1.44569e-06
-7.69026e-05
-2.71432e-06
-0.00011961
-3.80478e-06
-0.000156142
-4.2194e-06
-0.000186285
-3.39226e-06
-0.00020994
-6.84148e-07
-0.00022707
4.62927e-06
-0.000237648
1.33756e-05
-0.000241609
2.65079e-05
-0.000238792
4.5132e-05
-0.000228891
7.05365e-05
-0.000211416
0.000104226
-0.000185644
0.000147954
-0.000150595
0.000203755
-0.000104997
0.00027397
-4.72711e-05
0.00036126
2.4479e-05
0.00046859
0.00011246
0.000599196
0.000219217
0.000756492
0.000347242
0.000943748
0.000500501
0.00116428
0.000677083
0.00142171
0.000897913
0.00171058
0.00110496
0.00147043
0.00205283
-4.97612e-07
-2.7887e-05
-1.76792e-06
-7.56323e-05
-3.51164e-06
-0.000117866
-5.34702e-06
-0.000154307
-6.825e-06
-0.000184807
-7.43391e-06
-0.000209331
-6.5979e-06
-0.000227906
-3.66886e-06
-0.000240578
2.08712e-06
-0.000247365
1.15079e-05
-0.000248212
2.55578e-05
-0.000242941
4.53533e-05
-0.000231211
7.21924e-05
-0.000212483
0.000107586
-0.000185988
0.000153289
-0.0001507
0.000211333
-0.000105315
0.000284047
-4.82348e-05
0.000374068
2.24397e-05
0.000484347
0.000108938
0.000618043
0.000213546
0.000778607
0.000339937
0.000968971
0.000486719
0.00119432
0.000672567
0.00144892
0.000850356
0.0011608
0.00175855
-5.81023e-07
-2.73059e-05
-2.12414e-06
-7.40892e-05
-4.36441e-06
-0.000115626
-6.95693e-06
-0.000151714
-9.49292e-06
-0.000182271
-1.15065e-05
-0.000207318
-1.24758e-05
-0.000226937
-1.18181e-05
-0.000241235
-8.8801e-06
-0.000250303
-2.92332e-06
-0.000254169
6.89395e-06
-0.000252758
2.15385e-05
-0.000245856
4.21274e-05
-0.000233072
6.99557e-05
-0.000213816
0.000106526
-0.000187271
0.000153581
-0.000152369
0.000213127
-0.000107781
0.00028746
-5.18934e-05
0.000379188
1.72095e-05
0.000491143
0.000101592
0.000626654
0.000204426
0.000788249
0.000325123
0.000981805
0.000479011
0.00120205
0.000630108
0.000887049
0.0014758
-6.76267e-07
-2.66297e-05
-2.51391e-06
-7.22515e-05
-5.27269e-06
-0.000112867
-8.63625e-06
-0.000148351
-1.22285e-05
-0.000178679
-1.56218e-05
-0.000203924
-1.83403e-05
-0.000224218
-1.98575e-05
-0.000239718
-1.95897e-05
-0.000250571
-1.68844e-05
-0.000256875
-1.10061e-05
-0.000258637
-1.11824e-06
-0.000255743
1.37385e-05
-0.000247929
3.46695e-05
-0.000234748
6.29536e-05
-0.000215555
0.00010007
-0.000189486
0.00014773
-0.00015544
0.000207896
-0.00011206
0.000282821
-5.77154e-05
0.000374985
9.42772e-06
0.0004874
9.20107e-05
0.000622293
0.000190231
0.000785514
0.000315791
0.000972881
0.000442741
0.000649822
0.00121011
-7.82518e-07
-2.58472e-05
-2.93489e-06
-7.00992e-05
-6.23252e-06
-0.000109569
-1.03799e-05
-0.000144203
-1.50268e-05
-0.000174032
-1.97772e-05
-0.000199174
-2.41943e-05
-0.000219801
-2.78001e-05
-0.000236112
-3.00711e-05
-0.0002483
-3.04299e-05
-0.000256516
-2.82333e-05
-0.000260833
-2.27579e-05
-0.000261219
-1.3182e-05
-0.000257505
1.43439e-06
-0.000249364
2.21729e-05
-0.000236293
5.02815e-05
-0.000217595
8.72009e-05
-0.00019236
0.000134592
-0.000159451
0.000194363
-0.000117487
0.000268653
-6.4862e-05
0.000360072
5.91662e-07
0.000470658
7.96442e-05
0.000605789
0.000180659
0.000762745
0.000285785
0.000447885
0.000964682
-8.9846e-07
-2.49487e-05
-3.38302e-06
-6.76146e-05
-7.23642e-06
-0.000105716
-1.2177e-05
-0.000139263
-1.78741e-05
-0.000168335
-2.39575e-05
-0.000193091
-3.00235e-05
-0.000213735
-3.56362e-05