/*--------------------------------*- C++ -*----------------------------------*\
  =========                 |
  \\      /  F ield         | OpenFOAM: The Open Source CFD Toolbox
   \\    /   O peration     | Website:  https://openfoam.org
    \\  /    A nd           | Version:  7
     \\/     M anipulation  |
\*---------------------------------------------------------------------------*/
FoamFile
{
    version     2.0;
    format      ascii;
    class       volScalarField;
    location    "6.5";
    object      p;
}
// * * * * * * * * * * * * * * * * * * * * * * * * * * * * * * * * * * * * * //

dimensions      [1 -1 -2 0 0 0 0];

internalField   nonuniform List<scalar> 
4032
(
1
1
1
1
1
1
1
1
1
1
1
1.3314
7.59534
10.6074
10.7407
10.9498
11.1351
11.3118
11.4745
11.6211
11.7515
11.8566
11.937
11.9963
1
1
1
1
1
1
1
1
1
1
1
1.29246
7.43179
10.5738
10.7282
10.9312
11.1128
11.285
11.4426
11.5823
11.7044
11.8014
11.8728
11.9288
1
1
1
1
1
1
1
1
1
1
1
1.18895
7.13164
10.5453
10.6867
10.8881
11.07
11.2409
11.3956
11.5298
11.6439
11.7318
11.7892
11.8366
1
1
1
1
1
1
1
1
1
1
1
1.0168
6.63194
10.4948
10.6339
10.8215
10.9933
11.1523
11.2974
11.4249
11.5352
11.6192
11.6675
11.7043
1
1
1
1
1
1
1
1
1
1
1
1.0002
5.95924
10.317
10.4996
10.6845
10.8601
11.0175
11.1567
11.2707
11.3596
11.4251
11.4588
11.5068
1
1
1
1
1
1
1
1
1
1
1
0.999999
5.11468
10.0862
10.3883
10.5577
10.7252
10.8647
10.9831
11.0803
11.1577
11.2169
11.2283
11.1876
1
1
1
1
1
1
1
1
1
1
1
1
4.14532
9.73202
10.2715
10.4286
10.5733
10.6824
10.7653
10.8241
10.8441
10.8069
10.7382
10.6948
1
1
1
1
1
1
1
1
1
1
1
1
3.0981
9.18329
10.1843
10.3221
10.4365
10.5095
10.5427
10.5456
10.498
10.4194
10.2938
10.2886
1
1
1
1
1
1
1
1
1
1
1
1
2.01284
8.32169
10.1418
10.1971
10.2878
10.3282
10.3129
10.2515
10.105
9.83835
9.06335
7.19679
1
1
1
1
1
1
1
1
1
1
1
1
1.12823
7.18825
10.1934
10.0921
10.0878
10.0753
10.0181
9.89211
9.6519
9.18114
8.37971
6.31293
1
1
1
1
1
1
1
1
1
1
1
1
1.00159
5.5789
9.5906
9.7245
9.78747
9.76383
9.68855
9.51398
9.21611
8.65402
7.83011
5.89346
1
1
1
1
1
1
1
1
1
1
1
1
0.999976
3.7077
9.0124
9.59112
9.61858
9.55379
9.43355
9.20455
8.84598
8.27304
7.37448
5.80151
1
1
1
1
1
1
1
1
1
1
1
1
0.999994
1.97159
8.05481
9.53086
9.44221
9.33174
9.1722
8.90792
8.51295
7.95296
7.05641
5.84329
1
1
1
1
1
1
1
1
1
1
1
1
0.999999
1.09773
6.29512
9.20405
9.19059
9.09114
8.9219
8.64964
8.26041
7.69777
6.87381
5.92289
1
1
1
1
1
1
1
1
1
1
1
1
1
1.00052
3.84755
8.61298
9.04086
8.9367
8.74901
8.43956
8.05431
7.48477
6.76835
5.98517
1
1
1
1
1
1
1
1
1
1
1
1
1
0.999994
1.62802
7.64284
9.07501
8.79568
8.55706
8.2453
7.83359
7.3287
6.71876
6.05066
1
1
1
1
1
1
1
1
1
1
1
1
1
0.999999
1.03447
5.61274
8.64824
8.45867
8.29338
8.0241
7.6574
7.20738
6.67329
6.0908
1
1
1
1
1
1
1
1
1
1
1
1
1
1
0.999973
2.80804
7.90918
8.34968
8.20184
7.93598
7.57845
7.14201
6.64072
6.12048
1
1
1
1
1
1
1
1
1
1
1
1
1
1
0.999989
1.22904
6.0837
8.30157
8.11781
7.83251
7.47761
7.06776
6.60927
6.13995
1
1
1
1
1
1
1
1
1
1
1
1
1
1
0.999998
1.00405
3.23992
7.60695
7.9937
7.70608
7.38117
7.00287
6.58904
6.15908
1
1
1
1
1
1
1
1
1
1
1
1
1
1
1
1
1.34182
5.99102
7.96334
7.63859
7.32907
6.96336
6.57888
6.17982
1
1
1
1
1
1
1
1
1
1
1
1
1
1
1
1
1.00936
3.12628
7.23292
7.53809
7.2396
6.90242
6.55618
6.20199
1
1
1
1
1
1
1
1
1
1
1
1
1
1
1
1
1.00003
1.3125
5.47066
7.551
7.21496
6.90687
6.58866
6.26069
1
1
1
1
1
1
1
1
1
1
1
1
1
1
1
1
1
1.00818
2.52326
6.5333
7.17854
6.89436
6.60586
6.28667
1
1
1
1
1
1
1
1
1
1
1
1
1
1
1
1
1
1.00004
1.16783
4.41964
7.12341
6.92857
6.65624
6.28293
1
1
1
1
1
1
1
1
1
1
1
1
1
1
1
1
1
1
1.00294
1.84665
5.76872
6.94253
6.62907
6.25425
1
1
1
1
1
1
1
1
1
1
1
1
1
1
1
1
1
1
1.00001
1.05467
3.0863
6.42413
6.48644
6.75829
1
1
1
1
1
1
1
1
1
1
1
1
1
1
1
1
1
1
1
1.00065
1.30899
4.46891
6.41222
8.73044
1
1
1
1
1
1
1
1
1
1
1
1
1
1
1
1
1
1
1
1
1.00921
1.87041
6.92667
10.8004
1
1
1
1
1
1
1
1
1
1
1
1
1
1
1
1
1
1
1
1
1.00007
1.07834
7.51746
11.608
1
1
1
1
1
1
1
1
1
1
1
1
1
1
1
1
1
1
1
1
1
1.18439
7.44374
11.0142
1
1
1
1
1
1
1
1
1
1
1
1
1
1
1
1
1
1
1
1
1
1.18384
7.241
10.6765
1
1
1
1
1
1
1
1
1
1
1
1
1
1
1
1
1
1
1
1
1
1.06263
6.79938
10.3669
1
1
1
1
1
1
1
1
1
1
1
1
1
1
1
1
1
1
1
1
1
1.0022
6.27559
10.2981
1
1
1
1
1
1
1
1
1
1
1
1
1
1
1
1
1
1
1
1
1
1.00001
5.77757
10.206
1
1
1
1
1
1
1
1
1
1
1
1
1
1
1
1
1
1
1
1
1
1
5.32301
10.1567
1
1
1
1
1
1
1
1
1
1
1
1
1
1
1
1
1
1
1
1
1
1
4.9496
10.1255
1
1
1
1
1
1
1
1
1
1
1
1
1
1
1
1
1
1
1
1
1
1
4.6671
10.0997
1
1
1
1
1
1
1
1
1
1
1
1
1
1
1
1
1
1
1
1
1
1
4.48695
10.0728
1
1
1
1
1
1
1
1
1
1
1
1
1
1
1
1
1
1
1
1
1
1
4.41573
10.0422
1.61243
0.459223
0.125306
0.116464
0.177447
0.276598
0.358522
0.480279
0.684049
0.839974
0.962221
1.00527
1.00257
1.04438
1.1372
1.26664
1.319
1.33198
1.30219
1.8329
4.52862
5.33911
5.5073
5.60768
5.63706
5.66122
5.71204
5.75935
5.75946
5.70548
5.63027
5.57374
5.55895
5.5725
5.58358
5.55529
5.47379
5.37388
5.28347
5.22035
5.18885
5.17548
5.15225
5.09954
5.02365
4.94022
4.85878
4.78491
4.72231
4.67401
4.64281
4.61225
4.54874
4.46654
4.37961
4.29427
4.21933
4.15706
4.11824
4.08985
4.03606
3.9726
3.90769
3.84466
3.78514
3.72805
3.66997
3.60856
3.54317
3.47419
3.40705
3.35006
3.30206
3.25737
3.21183
3.16448
3.11425
3.0611
3.00771
2.95711
2.90992
2.86323
2.81395
2.761
2.70572
2.65441
2.61588
2.58578
2.55839
2.52859
2.49251
2.43875
2.36278
2.30374
2.26765
2.26665
2.70899
1.51365
0.908047
0.574163
0.56594
0.562072
0.515187
0.496463
0.512975
0.56453
0.63273
0.71229
0.796549
0.879094
0.977632
1.09643
1.16072
1.20322
1.21071
1.63037
4.30059
5.52307
5.62607
5.68243
5.7145
5.72342
5.71336
5.69409
5.67914
5.66958
5.65216
5.62283
5.58143
5.53782
5.49982
5.47082
5.43496
5.37532
5.30081
5.2312
5.17927
5.14719
5.11732
5.06695
4.99879
4.92548
4.85385
4.78848
4.73127
4.68023
4.63144
4.57429
4.50969
4.4446
4.37375
4.30101
4.22986
4.16867
4.12586
4.08872
4.03143
3.9671
3.89669
3.82316
3.76099
3.70887
3.6632
3.61497
3.55853
3.49629
3.42651
3.35409
3.29472
3.24849
3.20634
3.16173
3.11565
3.06622
3.01133
2.95321
2.90029
2.85533
2.81186
2.76646
2.7194
2.67028
2.61992
2.57672
2.5447
2.51774
2.48629
2.44129
2.38227
2.31852
2.27592
2.30506
3.56635
2.34947
1.71851
1.23814
0.965652
0.852274
0.753981
0.615994
0.547086
0.557191
0.599643
0.665625
0.753808
0.828105
0.867453
0.931498
1.00808
1.07551
1.12267
1.32272
4.07006
5.92769
5.76458
5.63783
5.6911
5.78794
5.80625
5.74721
5.66724
5.62001
5.61883
5.65118
5.66713
5.61692
5.53534
5.45582
5.39083
5.34686
5.30717
5.26069
5.21233
5.17132
5.13399
5.07485
4.99706
4.91853
4.84578
4.78379
4.74011
4.713
4.66764
4.59271
4.51065
4.43064
4.3582
4.29309
4.23157
4.17875
4.1392
4.09494
4.0385
3.98081
3.91658
3.84015
3.75584
3.68399
3.63026
3.58548
3.548
3.50253
3.45027
3.3844
3.30567
3.23787
3.19004
3.14986
3.11217
3.07215
3.02749
2.96995
2.89631
2.82815
2.78577
2.75308
2.72139
2.68793
2.64608
2.59273
2.53494
2.4863
2.44789
2.41481
2.38423
2.35295
2.32947
2.4343
4.23557
3.13593
2.40261
1.87315
1.46468
1.25602
1.13981
0.986481
0.815015
0.743716
0.738958
0.734561
0.73474
0.73537
0.738449
0.75464
0.815726
0.899613
1.00578
1.21326
2.94792
5.93418
6.15913
5.78864
5.69149
5.75954
5.80916
5.78742
5.7197
5.63499
5.59419
5.58016
5.59521
5.59196
5.54297
5.47351
5.392
5.3287
5.27574
5.22934
5.18804
5.154
5.11848
5.06101
4.99324
4.91416
4.83543
4.77155
4.72221
4.68882
4.64018
4.57557
4.50504
4.42437
4.34583
4.28154
4.22634
4.17918
4.1293
4.07314
4.01426
3.95601
3.89883
3.83777
3.77009
3.70138
3.63842
3.58342
3.53458
3.48813
3.44017
3.38484
3.31369
3.23527
3.1738
3.13062
3.09355
3.05814
3.02141
2.97876
2.91707
2.83559
2.77245
2.73673
2.70814
2.68001
2.65006
2.6112
2.54965
2.47178
2.41533
2.38745
2.37414
2.38988
2.43758
2.69234
4.65914
3.71662
3.02669
2.47785
1.98685
1.63194
1.46429
1.33821
1.18947
1.00849
0.873463
0.8284
0.805879
0.790637
0.768439
0.758744
0.769172
0.801553
0.966852
1.27044
1.88336
4.35241
6.09018
6.02992
5.8473
5.74654
5.7684
5.78624
5.7618
5.70402
5.63177
5.58063
5.55061
5.54321
5.52357
5.47694
5.41335
5.33861
5.27851
5.22757
5.18644
5.15101
5.10286
5.04551
4.98349
4.91237
4.84093
4.78112
4.73101
4.67992
4.62126
4.56038
4.4924
4.41234
4.33626
4.28065
4.23316
4.18534
4.13111
4.07256
4.00917
3.9426
3.87641
3.81305
3.75427
3.69973
3.64588
3.58968
3.53361
3.48143
3.43078
3.3763
3.31254
3.24094
3.17367
3.11997
3.07762
3.04002
3.00344
2.96422
2.91468
2.84606
2.77724
2.73437
2.70312
2.67329
2.64219
2.60426
2.54989
2.4762
2.41145
2.39152
2.40316
2.47751
2.6465
2.99936
5.00752
4.16403
3.47044
2.9715
2.53813
2.09843
1.73704
1.60062
1.50384
1.36606
1.19276
1.01122
0.955557
0.942688
0.899575
0.869426
0.905763
1.02113
1.25765
1.53944
1.6192
2.26698
4.59751
5.92398
5.97908
5.82461
5.72381
5.74901
5.7795
5.73989
5.67828
5.5878
5.53449
5.50139
5.4873
5.45356
5.40012
5.33529
5.27698
5.22871
5.18805
5.13647
5.07703
5.01764
4.95784
4.89614
4.83595
4.77919
4.7207
4.65988
4.60006
4.54041
4.47541
4.39771
4.32163
4.26882
4.2216
4.17134
4.11896
4.06301
3.99955
3.92731
3.85477
3.79372
3.74351
3.69591
3.64468
3.58679
3.52446
3.46534
3.41148
3.35794
3.30154
3.24187
3.17835
3.1145
3.06122
3.02116
2.98613
2.95014
2.90752
2.85072
2.78107
2.72523
2.69056
2.6605
2.62874
2.58976
2.54
2.47685
2.42693
2.43239
2.50499
2.69535
2.96182
3.24138
5.21517
4.51258
3.85814
3.2933
2.91086
2.55307
2.18076
1.84396
1.67731
1.60116
1.48748
1.32928
1.1479
1.06348
1.02475
1.05051
1.21394
1.47547
1.6427
1.78178
1.80418
1.84493
2.44856
4.43645
5.8131
5.85366
5.73557
5.68672
5.7366
5.74911
5.7093
5.6227
5.53719
5.48715
5.45292
5.42575
5.37692
5.32339
5.27417
5.23383
5.18858
5.12736
5.05648
4.99056
4.9351
4.88337
4.83237
4.77497
4.71068
4.64279
4.57923
4.5201
4.45854
4.38725
4.31277
4.25417
4.20432
4.15583
4.1066
4.05295
3.98838
3.90759
3.82707
3.77068
3.72701
3.68405
3.63764
3.5841
3.51988
3.44882
3.38387
3.32921
3.2802
3.23234
3.18044
3.11977
3.05473
3.00128
2.96305
2.92946
2.89353
2.84885
2.78908
2.72307
2.6721
2.6367
2.60408
2.56832
2.53362
2.49588
2.48782
2.54324
2.74278
2.99445
3.24668
3.36434
5.38015
4.7523
4.17996
3.64208
3.17266
2.83982
2.53987
2.21338
1.93601
1.75698
1.66426
1.55774
1.41477
1.30915
1.31513
1.47242
1.84856
2.0147
1.99535
1.98544
1.95851
1.95661
2.0191
2.51402
4.17538
5.60964
5.74439
5.69078
5.67677
5.72503
5.70992
5.64362
5.55112
5.48715
5.43953
5.40457
5.35505
5.30222
5.25676
5.22015
5.17631
5.11828
5.04796
4.97172
4.91248
4.86215
4.81117
4.75421
4.69259
4.62586
4.56057
4.49964
4.43857
4.37252
4.30111
4.23448
4.18044
4.1329
4.08557
4.03438
3.97242
3.89268
3.81012
3.75071
3.70638
3.66513
3.62267
3.57485
3.51364
3.43382
3.35434
3.29762
3.25537
3.21645
3.17531
3.12579
3.06219
2.99281
2.93922
2.90202
2.8689
2.83259
2.78686
2.72604
2.66093
2.61463
2.57912
2.55357
2.54642
2.56103
2.63048
2.83405
3.12665
3.25626
3.3559
3.38272
5.50192
4.92436
4.40975
3.92649
3.4562
3.08313
2.78799
2.5165
2.24632
1.99256
1.81117
1.7223
1.69276
1.73907
1.85686
2.17756
2.42496
2.40642
2.30473
2.20723
2.17757
2.1897
2.20162
2.23294
2.53786
3.86674
5.27529
5.60073
5.69401
5.71741
5.70145
5.63459
5.54301
5.47897
5.4356
5.40123
5.35059
5.28965
5.23552
5.19269
5.15306
5.10368
5.04482
4.96952
4.89584
4.83813
4.7821
4.72577
4.66808
4.60668
4.54233
4.47893
4.41791
4.35644
4.29042
4.2213
4.15832
4.10478
4.05516
4.00412
3.94649
3.87855
3.80577
3.74044
3.68766
3.64267
3.59943
3.55268
3.49388
3.4144
3.32949
3.27068
3.23128
3.19648
3.16111
3.12063
3.06745
2.99757
2.92684
2.8769
2.8414
2.80866
2.77041
2.71921
2.65517
2.59932
2.5679
2.56537
2.60615
2.72441
2.9479
3.27819
3.41266
3.41092
3.39834
3.3828
5.5929
5.06796
4.5857
4.14775
3.71882
3.3424
3.01568
2.73059
2.48606
2.25014
2.05705
2.03617
2.19615
2.35562
2.51847
2.73161
2.75698
2.69358
2.59657
2.49497
2.43333
2.4173
2.41135
2.3754
2.39371
2.56429
3.52881
4.87989
5.45324
5.70586
5.72856
5.65438
5.52329
5.44804
5.41315
5.39256
5.35021
5.28958
5.21541
5.16161
5.1192
5.07724
5.02629
4.96124
4.88127
4.80891
4.74915
4.69358
4.63854
4.5809
4.51817
4.45356
4.39302
4.33544
4.27571
4.2102
4.14122
4.07722
4.02045
3.96641
3.91198
3.85627
3.79749
3.73472
3.67325
3.61865
3.56923
3.51944
3.46263
3.39315
3.31707
3.25288
3.20617
3.16897
3.13491
3.10012
3.05892
3.00291
2.93181
2.86385
2.81437
2.77682
2.74092
2.69955
2.65202
2.60332
2.59506
2.63371
2.80025
3.05199
3.35355
3.56291
3.56876
3.51194
3.43609
3.38734
5.66327
5.18942
4.73323
4.32564
3.93037
3.56655
3.23251
2.92612
2.69833
2.54835
2.53537
2.73512
3.05348
3.05529
3.0554
3.05938
3.01507
2.96211
2.89631
2.80491
2.71212
2.67112
2.62998
2.6009
2.5363
2.50799
2.59714
3.24028
4.45614
5.305
5.67085
5.68038
5.55001
5.41828
5.37331
5.35961
5.33695
5.28722
5.21058
5.13692
5.08971
5.04637
4.99569
4.93415
4.85705
4.78195
4.72093
4.66583
4.61165
4.5544
4.49096
4.42603
4.36707
4.31226
4.25672
4.19552
4.12616
4.05539
3.99156
3.93383
3.87961
3.82755
3.77477
3.71767
3.65637
3.59591
3.53884
3.4835
3.42709
3.36774
3.30526
3.2433
3.1889
3.14447
3.10683
3.07211
3.03622
2.99195
2.93234
2.86354
2.80111
2.75209
2.71013
2.67783
2.65178
2.6489
2.69594
2.87991
3.17927
3.41077
3.61163
3.64222
3.61252
3.55363
3.47819
3.4013
5.72712
5.29703
4.87191
4.47872
4.11455
3.75639
3.41777
3.14521
3.06575
3.16065
3.31339
3.65689
3.7404
3.58145
3.4068
3.30042
3.24755
3.23404
3.18574
3.09565
2.97057
2.91464
2.86265
2.80925
2.75366
2.67345
2.6057
2.63463
3.00327
4.02183
5.0523
5.52703
5.55081
5.41276
5.3471
5.31318
5.30477
5.26564
5.20307
5.12423
5.06449
5.01114
4.95362
4.88851
4.81758
4.75268
4.69558
4.64091
4.5852
4.52504
4.45926
4.39587
4.33913
4.28483
4.22927
4.16832
4.10003
4.03125
3.96954
3.91242
3.85561
3.79772
3.73913
3.68073
3.62326
3.56701
3.51153
3.45542
3.39839
3.34065
3.28293
3.22626
3.17381
3.12743
3.08549
3.04462
3.00356
2.95957
2.90876
2.84954
2.79208
2.73971
2.70087
2.68184
2.6987
2.7785
2.98247
3.33765
3.54084
3.61623
3.64798
3.64544
3.61379
3.57438
3.53463
3.45232
5.78676
5.39066
4.99456
4.60439
4.24966
3.94178
3.67394
3.66144
3.90733
4.06145
4.15663
4.27722
4.19491
3.97655
3.74091
3.57349
3.51071
3.50069
3.45696
3.36884
3.23985
3.12413
3.08344
3.02268
2.96556
2.89233
2.79119
2.67803
2.68405
2.86715
3.60427
4.67388
5.30192
5.35016
5.331
5.29564
5.28028
5.2275
5.17182
5.10241
5.04209
4.97979
4.90975
4.83651
4.77593
4.72378
4.67271
4.61912
4.55948
4.49199
4.42362
4.36518
4.31249
4.25882
4.20015
4.13238
4.0583
3.99375
3.94297
3.89477
3.84228
3.78087
3.70862
3.63369
3.57081
3.52118
3.47614
3.43161
3.38357
3.32817
3.26484
3.20129
3.14795
3.1052
3.06672
3.0262
2.98079
2.92924
2.87184
2.81468
2.76931
2.73101
2.7282
2.76578
2.90232
3.13752
3.47033
3.71946
3.72751
3.68366
3.64383
3.62347
3.61434
3.59683
3.5741
3.51008
5.84314
5.47025
5.09793
4.70916
4.41589
4.2689
4.35752
4.71622
4.9668
4.80204
4.65862
4.60972
4.50003
4.31045
4.09023
3.89676
3.80398
3.77048
3.71565
3.61892
3.49523
3.34384
3.27009
3.2213
3.15421
3.08778
2.99983
2.8836
2.75131
2.74477
2.82052
3.26996
4.21825
4.94016
5.14623
5.28066
5.27088
5.19827
5.12349
5.05778
5.00848
4.94774
4.86694
4.78665
4.73783
4.69391
4.64845
4.59765
4.53378
4.45232
4.37664
4.32568
4.28107
4.23332
4.17623
4.10174
4.01085
3.93878
3.89653
3.85972
3.81989
3.77066
3.70031
3.6019
3.50857
3.45651
3.4243
3.39503
3.36294
3.32166
3.26193
3.18312
3.11041
3.06538
3.03359
3.00207
2.96441
2.91345
2.85086
2.78618
2.74492
2.75332
2.81682
3.01448
3.30834
3.57724
3.82584
3.8541
3.81488
3.72774
3.65647
3.62419
3.60464
3.60078
3.59029
3.53631
5.89972
5.53606
5.18481
4.89348
4.91025
5.19788
5.481
5.73596
5.63907
5.29366
4.9998
4.86236
4.78294
4.63825
4.42821
4.2361
4.10375
4.03112
3.97028
3.85557
3.72748
3.57509
3.46343
3.4091
3.33943
3.26784
3.18561
3.07778
2.94899
2.82867
2.78263
2.81014
3.04985
3.73136
4.50471
4.9818
5.17106
5.15392
5.08553
5.03088
4.97781
4.91666
4.82966
4.73875
4.69219
4.65667
4.61962
4.57298
4.50875
4.41382
4.32008
4.27273
4.23627
4.1968
4.1493
4.08462
3.99051
3.89052
3.83716
3.80485
3.77348
3.73759
3.68655
3.59785
3.47996
3.40305
3.3712
3.34776
3.32469
3.29712
3.25546
3.18494
3.09012
3.01989
2.98613
2.9623
2.93424
2.89645
2.84886
2.79534
2.79737
2.88221
3.10604
3.46
3.67611
3.84399
3.9087
3.88489
3.83552
3.77245
3.70389
3.64851
3.615
3.59166
3.5828
3.53848
5.90958
5.60007
5.36078
5.52296
6.08687
6.36066
6.32727
6.25059
5.99488
5.64731
5.32494
5.15759
5.08864
4.95989
4.74269
4.55109
4.39697
4.28047
4.20769
4.08873
3.93787
3.79838
3.6667
3.59664
3.52615
3.43701
3.35085
3.24051
3.11086
2.99756
2.89688
2.83913
2.82902
2.91349
3.31509
4.032
4.70012
4.92293
4.97957
5.01052
4.96485
4.90279
4.80785
4.69723
4.63935
4.60659
4.57782
4.53633
4.47904
4.38897
4.27193
4.20683
4.17392
4.14227
4.10311
4.05496
3.98591
3.88357
3.78242
3.73236
3.70389
3.67622
3.63824
3.58027
3.49814
3.39858
3.32067
3.28541
3.26329
3.24381
3.21843
3.175
3.10251
3.00962
2.93534
2.90383
2.88375
2.87375
2.87284
2.90232
3.03581
3.28115
3.64321
3.86145
3.89427
3.91038
3.89603
3.86581
3.83276
3.80141
3.76419
3.70913
3.64434
3.60085
3.57961
3.54207
5.97214
5.88687
6.24603
6.93052
7.2886
7.00643
6.73486
6.52904
6.28365
5.99108
5.67891
5.48739
5.38615
5.25805
5.04677
4.82525
4.67274
4.5298
4.42731
4.3204
4.15412
4.00603
3.87452
3.77808
3.70398
3.60899
3.5031
3.39425
3.26488
3.14608
3.05707
2.96921
2.88137
2.84922
2.86456
3.03738
3.55094
4.21675
4.65011
4.81761
4.91305
4.8883
4.80294
4.67884
4.5884
4.54874
4.51758
4.48493
4.43744
4.36888
4.25695
4.15
4.09867
4.0653
4.03592
3.99769
3.95331
3.88955
3.78923
3.67942
3.61013
3.5757
3.55134
3.52193
3.48335
3.42346
3.33243
3.24386
3.19814
3.17586
3.15644
3.12544
3.07951
3.01691
2.93216
2.87034
2.85813
2.88201
2.96516
3.18851
3.48174
3.80726
4.04123
4.04224
3.99079
3.91858
3.87303
3.84747
3.83448
3.8194
3.79252
3.75455
3.69472
3.6273
3.59547
3.55582
6.30069
6.96938
7.7404
8.10973
7.83939
7.31229
6.98228
6.78045
6.59499
6.33454
6.01668
5.80057
5.67576
5.54004
5.34295
5.09125
4.92217
4.78551
4.65424
4.54504
4.39685
4.21755
4.07897
3.95512
3.86096
3.76569
3.65573
3.53801
3.41536
3.2937
3.18782
3.10602
3.01747
2.9177
2.85531
2.81981
2.86236
3.14661
3.73389
4.29034
4.65117
4.7658
4.76112
4.6695
4.56537
4.50481
4.46655
4.42934
4.38593
4.33114
4.24685
4.14849
4.06024
3.99464
3.95675
3.93723
3.90824
3.86302
3.78555
3.68309
3.57474
3.50054
3.47061
3.45891
3.44219
3.40564
3.34423
3.26408
3.1759
3.11009
3.0763
3.05745
3.03668
3.00395
2.95378
2.89952
2.91986
3.03417
3.3032
3.64157
3.88222
4.08452
4.12034
4.09529
4.04448
3.96153
3.89209
3.86102
3.84086
3.82796
3.80522
3.77336
3.73149
3.6679
3.62024
3.57467
7.84418
8.60631
8.73566
8.5475
8.10703
7.59397
7.26493
7.08417
6.91681
6.65435
6.32237
6.0835
5.95108
5.81042
5.6153
5.36633
5.15493
5.02553
4.89146
4.75874
4.61896
4.43424
4.26443
4.13193
4.01317
3.90758
3.80029
3.68307
3.55565
3.4305
3.32107
3.22507
3.13886
3.04771
2.94019
2.84882
2.78794
2.77634
2.88962
3.30176
3.8853
4.37327
4.59475
4.61143
4.58376
4.48046
4.35551
4.28137
4.25369
4.23919
4.21706
4.16208
4.07595
3.97642
3.86731
3.80073
3.7731
3.75137
3.72743
3.67867
3.58977
3.48697
3.40127
3.3581
3.33386
3.31994
3.30867
3.26441
3.18512
3.09209
3.01538
2.97563
2.95369
2.95413
2.97395
3.04963
3.23536
3.54403
3.87949
3.98678
4.05464
4.11466
4.12796
4.1104
4.07863
4.02265
3.94146
3.88578
3.85812
3.83691
3.81676
3.79001
3.75857
3.71115
3.65027
3.5868
9.70623
9.49931
9.11456
8.73501
8.31032
7.86687
7.5694
7.40055
7.22527
6.95533
6.62266
6.36952
6.22955
6.08654
5.87853
5.64293
5.40517
5.24514
5.1164
4.9672
4.81373
4.63762
4.4459
4.29848
4.17387
4.05612
3.93953
3.82022
3.69157
3.55886
3.44089
3.34027
3.24919
3.15891
3.06095
2.94818
2.83628
2.75406
2.71667
2.74984
2.97787
3.48063
4.00079
4.37457
4.47975
4.4523
4.3458
4.21077
4.14748
4.12557
4.11159
4.09555
4.05272
3.97086
3.84963
3.73559
3.67538
3.64789
3.62246
3.59421
3.55837
3.48148
3.37759
3.30989
3.2762
3.2523
3.22492
3.19869
3.1621
3.0858
2.98493
2.94241
2.93952
2.97685
3.14407
3.44147
3.79287
4.1187
4.19921
4.16278
4.14547
4.13015
4.13603
4.12522
4.09387
4.04907
3.97861
3.90839
3.87354
3.84991
3.83056
3.80646
3.7761
3.7361
3.68153
3.60453
10.4449
9.79895
9.34782
8.97988
8.58017
8.15794
7.86957
7.69737
7.50248
7.22187
6.89451
6.63695
6.48493
6.34496
6.13289
5.89164
5.66414
5.45886
5.30936
5.16283
4.99298
4.81529
4.62888
4.45986
4.32435
4.20123
4.07879
3.95142
3.81823
3.68173
3.55092
3.43904
3.34581
3.25634
3.16579
3.06144
2.94414
2.82425
2.74522
2.683
2.67892
2.78066
3.11119
3.59901
4.02805
4.29047
4.30138
4.21835
4.12739
4.05353
4.00626
3.96933
3.93429
3.89406
3.83115
3.72918
3.62677
3.56649
3.5343
3.50462
3.47466
3.44136
3.38676
3.30057
3.22462
3.18448
3.15254
3.11613
3.07827
3.03833
2.98472
2.97502
3.03706
3.2614
3.63719
3.93455
4.20668
4.31018
4.30199
4.25065
4.17549
4.13887
4.1216
4.11695
4.09037
4.05495
4.01171
3.95055
3.90222
3.87867
3.85358
3.82102
3.78482
3.74763
3.71277
3.64012
10.6575
9.99679
9.55396
9.20013
8.80026
8.44837
8.18414
8.00732
7.80429
7.52702
7.18997
6.90658
6.72922
6.57597
6.37249
6.11059
5.88191
5.67711
5.49029
5.33249
5.16465
4.9801
4.7933
4.61865
4.46696
4.3324
4.20315
4.07289
3.93903
3.8025
3.66799
3.54239
3.42908
3.326
3.22736
3.13
3.03468
2.92924
2.82784
2.73243
2.67712
2.60951
2.62466
2.78952
3.18494
3.64928
4.03654
4.1835
4.1423
4.02435
3.91069
3.85184
3.81924
3.7959
3.76712
3.71717
3.62354
3.51333
3.45692
3.42794
3.40149
3.36869
3.3294
3.2743
3.1966
3.12221
3.07217
3.0384
3.03109
3.02854
3.06033
3.19027
3.46484
3.86194
4.08151
4.22373
4.33156
4.35667
4.33952
4.28524
4.19493
4.13541
4.11487
4.10363
4.10796
4.09021
4.06014
4.01101
3.94279
3.87565
3.83597
3.81418
3.79852
3.77584
3.74851
3.68012
10.2527
9.90225
9.58102
9.30771
9.05547
8.76076
8.47421
8.26002
8.02407
7.74904
7.45749
7.18615
6.9977
6.83335
6.63382
6.37715
6.12943
5.9358
5.75037
5.57869
5.4089
5.22419
5.02864
4.84011
4.67573
4.53209
4.39744
4.26413
4.12778
3.98672
3.84364
3.7055
3.57873
3.4654
3.36069
3.2632
3.16802
3.07011
2.96251
2.8546
2.73407
2.62411
2.54749
2.54115
2.61381
2.86866
3.29429
3.74607
4.01392
3.99614
3.89084
3.78354
3.73603
3.70664
3.68693
3.65072
3.59256
3.49081
3.39805
3.36029
3.33299
3.30971
3.27673
3.23317
3.16624
3.0746
3.01924
3.01738
3.03915
3.14206
3.40834
3.743
4.10415
4.2797
4.29888
4.32946
4.36832
4.36892
4.34248
4.29602
4.22371
4.15926
4.13169
4.11349
4.10098
4.08694
4.06313
4.03007
3.97391
3.90522
3.8559
3.82135
3.79179
3.76146
3.73427
3.6764
10.2434
10.0519
9.81629
9.56631
9.28704
8.97575
8.69198
8.45817
8.24477
7.99382
7.68059
7.40294
7.19397
7.00841
6.79426
6.53171
6.26112
6.06145
5.86942
5.68344
5.50616
5.31779
5.1142
4.91329
4.73541
4.58067
4.43886
4.3014
4.16166
4.01612
3.86744
3.72343
3.591
3.47335
3.36507
3.26183
3.15765
3.05468
2.95101
2.84942
2.75607
2.67016
2.5814
2.50928
2.44883
2.47317
2.6295
2.98681
3.43931
3.82061
3.85625
3.76104
3.67465
3.62738
3.60003
3.57075
3.52467
3.454
3.35241
3.2916
3.26184
3.24672
3.22273
3.17971
3.12558
3.05391
3.03133
3.05221
3.21113
3.57805
3.96774
4.25279
4.42427
4.43371
4.40285
4.37586
4.35281
4.33439
4.313
4.28825
4.25731
4.20867
4.16071
4.13172
4.10681
4.08049
4.05165
4.01806
3.97699
3.93048
3.88526
3.84547
3.81074
3.77506
3.73928
3.67585
10.1797
10.0553
9.84675
9.61379
9.3475
9.08882
8.86301
8.6524
8.41397
8.11875
7.81649
7.56392
7.36055
7.16879
6.94638
6.68334
6.41022
6.20559
6.01979
5.82793
5.64046
5.44521
5.23672
5.03332
4.85377
4.69517
4.54574
4.39752
4.24648
4.09243
3.94173
3.80249
3.67627
3.55855
3.4433
3.32673
3.20858
3.09712
2.99585
2.90073
2.80911
2.72078
2.62875
2.536
2.45839
2.38583
2.37151
2.44612
2.71872
3.17562
3.58793
3.6601
3.63409
3.5737
3.52984
3.49453
3.45136
3.39791
3.32024
3.2367
3.19311
3.16669
3.1461
3.1215
3.10016
3.08282
3.12952
3.34601
3.76187
4.14599
4.32262
4.48194
4.53857
4.51322
4.44049
4.36019
4.32442
4.30784
4.30109
4.2919
4.27438
4.24746
4.20127
4.15202
4.11451
4.08214
4.04951
4.01575
3.98175
3.9465
3.90754
3.86628
3.82727
3.7876
3.75037
3.69111
10.2089
10.0386
9.86182
9.66305
9.4453
9.22288
9.00203
8.77073
8.50847
8.22967
7.96975
7.74405
7.54579
7.33458
7.08241
6.80701
6.54715
6.33979
6.14524
5.94192
5.73909
5.53364
5.32343
5.12406
4.94618
4.78263
4.62332
4.46444
4.30601
4.14933
3.99949
3.86081
3.73281
3.61084
3.49227
3.37549
3.25878
3.14231
3.03083
2.9279
2.83638
2.75186
2.67111
2.58713
2.50116
2.40611
2.32034
2.27817
2.3175
2.52193
2.9181
3.33402
3.52633
3.5196
3.4792
3.43592
3.39038
3.34615
3.29971
3.22214
3.1335
3.09201
3.06037
3.0775
3.12317
3.25502
3.59802
4.02847
4.33004
4.44516
4.51148
4.54412
4.52702
4.48737
4.43441
4.37074
4.33562
4.318
4.30775
4.29764
4.27752
4.25371
4.2182
4.16665
4.11946
4.08387
4.05273
4.02279
3.9928
3.96026
3.92155
3.87546
3.8297
3.78807
3.75703
3.70794
10.2297
10.0298
9.87613
9.68549
9.48348
9.2763
9.06253
8.83152
8.58037
8.32433
8.08271
7.86251
7.64344
7.3988
7.13693
6.87565
6.64237
6.44545
6.25558
6.04871
5.83224
5.60575
5.38779
5.1952
5.02259
4.86064
4.70397
4.54555
4.37834
4.20392
4.03832
3.89388
3.76866
3.65524
3.546
3.43371
3.3106
3.17585
3.04808
2.94296
2.85887
2.78406
2.71409
2.63649
2.54193
2.42932
2.32879
2.25831
2.2275
2.24937
2.36925
2.68865
3.10402
3.35477
3.37628
3.35247
3.3429
3.30866
3.26292
3.19788
3.10701
3.05741
3.05267
3.07927
3.30692
3.80185
4.25634
4.51559
4.56854
4.5252
4.50356
4.49628
4.49045
4.47286
4.44749
4.40273
4.35802
4.33349
4.31523
4.30036
4.27893
4.25441
4.22169
4.17309
4.12323
4.08717
4.05876
4.0321
4.00455
3.97346
3.93375
3.88328
3.83536
3.79904
3.7744
3.7284
10.2674
10.0328
9.88413
9.70573
9.52237
9.32329
9.10704
8.8771
8.64041
8.40444
8.17761
7.95375
7.71336
7.46151
7.20725
6.96161
6.74173
6.5479
6.34333
6.12368
5.88603
5.64074
5.42914
5.25027
5.08581
4.92688
4.76882
4.6019
4.41921
4.23257
4.0661
3.92643
3.80673
3.69695
3.58852
3.47204
3.34161
3.20147
3.07197
2.968
2.88613
2.81286
2.73936
2.65774
2.56221
2.45139
2.35445
2.28146
2.22505
2.19001
2.17678
2.23783
2.47062
2.90274
3.16653
3.24828
3.2579
3.23945
3.1946
3.13637
3.08652
3.04351
3.09355
3.37445
3.93198
4.353
4.59528
4.67065
4.63159
4.54824
4.49895
4.48021
4.47299
4.4664
4.44878
4.42162
4.37911
4.34388
4.32242
4.3029
4.28164
4.25859
4.2287
4.18231
4.12719
4.08685
4.05799
4.03251
4.00726
3.97812
3.93699
3.88188
3.83892
3.81204
3.79183
3.74559
10.2979
10.047
9.90188
9.72209
9.53533
9.33451
9.12295
8.90455
8.68374
8.46366
8.24163
8.00402
7.75304
7.50235
7.25624
7.02452
6.82181
6.62549
6.40461
6.17017
5.92231
5.68997
5.48846
5.30789
5.13939
4.97692
4.8112
4.63277
4.44433
4.26345
4.1028
3.96162
3.83719
3.72453
3.61414
3.49521
3.36367
3.22877
3.10497
2.99763
2.9073
2.83005
2.75509
2.67185
2.57879
2.48045
2.38721
2.30791
2.23734
2.1788
2.13516
2.10422
2.1348
2.30903
2.68328
3.026
3.12829
3.16181
3.12834
3.09712
3.08858
3.18876
3.511
4.08622
4.44981
4.58166
4.65204
4.65901
4.62456
4.56479
4.51506
4.4925
4.48167
4.47764
4.45976
4.43379
4.39454
4.35048
4.32483
4.30471
4.28366
4.25833
4.22313
4.17275
4.12059
4.08661
4.06178
4.037
4.01055
3.97824
3.93256
3.88193
3.85096
3.82715
3.80461
3.74811
10.3219
10.0604
9.91336
9.73351
9.54733
9.34886
9.14243
8.92997
8.71415
8.49445
8.26414
8.02267
7.7797
7.54118
7.30667
7.0862
6.87671
6.65858
6.42662
6.18698
5.95413
5.7398
5.54483
5.36085
5.18349
5.00797
4.82522
4.63714
4.45798
4.29533
4.14728
4.00726
3.87297
3.74516
3.62018
3.49109
3.36542
3.25094
3.14503
3.04175
2.93937
2.84044
2.74728
2.65636
2.5704
2.49541
2.42332
2.3491
2.26721
2.18558
2.11626
2.05571
2.02805
2.04911
2.18394
2.50138
2.82891
3.04084
3.05614
3.10692
3.29947
3.71279
4.22509
4.58791
4.67337
4.64353
4.62726
4.62136
4.60497
4.57639
4.53157
4.50562
4.49252
4.48109
4.46097
4.434
4.40283
4.36839
4.33491
4.30572
4.27504
4.23858
4.19897
4.16281
4.13316
4.10542
4.07645
4.04499
4.01014
3.97233
3.93327
3.89667
3.86442
3.83293
3.79872
3.72959
10.3349
10.069
9.91898
9.7395
9.55552
9.36101
9.15863
8.94893
8.73249
8.50814
8.27441
8.0374
7.80342
7.57234
7.34156
7.12051
6.90005
6.66132
6.41984
6.19341
5.98236
5.78444
5.59469
5.40728
5.2144
5.011
4.81134
4.62894
4.46704
4.32269
4.18855
4.05464
3.91418
3.76162
3.60891
3.47516
3.36256
3.2652
3.17398
3.07815
2.96961
2.8507
2.7366
2.6444
2.56962
2.50601
2.44432
2.37468
2.28778
2.19083
2.10636
2.0441
1.99652
1.97584
1.97709
2.07152
2.34544
2.71172
2.98588
3.3793
3.84998
4.30077
4.62728
4.70284
4.65789
4.60806
4.59219
4.59515
4.597
4.58035
4.55419
4.52301
4.4995
4.48282
4.4652
4.44291
4.41866
4.38906
4.34438
4.29524
4.25665
4.22494
4.19752
4.17352
4.14991
4.12133
4.08189
4.03754
3.99982
3.96977
3.94161
3.91062
3.8713
3.82293
3.77897
3.72315
10.3353
10.0761
9.92729
9.74804
9.5652
9.37234
9.17087
8.96051
8.74109
8.51378
8.28284
8.05335
7.82685
7.59839
7.37157
7.14735
6.90413
6.65846
6.42204
6.20681
6.01122
5.822
5.63118
5.43646
5.22547
5.0004
4.78845
4.6146
4.47336
4.3477
4.22617
4.09631
3.94125
3.75783
3.5824
3.45092
3.35586
3.27626
3.19909
3.11359
3.00113
2.8539
2.71401
2.6239
2.56273
2.51155
2.46075
2.40077
2.31403
2.19512
2.09127
2.03165
1.98488
1.9434
1.92132
1.91969
2.00193
2.30302
2.9696
3.72153
4.38041
4.92947
5.02382
4.92226
4.70348
4.576
4.56216
4.57163
4.58773
4.58085
4.5595
4.5299
4.50423
4.48725
4.4704
4.4493
4.42439
4.39222
4.34219
4.28706
4.25206
4.22678
4.20399
4.18212
4.15744
4.12436
4.07686
4.02953
3.99777
3.97164
3.94432
3.91185
3.86744
3.809
3.76816
3.72551
)
;

boundaryField
{
    inlet
    {
        type            fixedValue;
        value           uniform 1;
    }
    outlet
    {
        type            zeroGradient;
    }
    bottom
    {
        type            symmetryPlane;
    }
    top
    {
        type            symmetryPlane;
    }
    obstacle
    {
        type            zeroGradient;
    }
    defaultFaces
    {
        type            empty;
    }
}


// ************************************************************************* //
