/*--------------------------------*- C++ -*----------------------------------*\
  =========                 |
  \\      /  F ield         | OpenFOAM: The Open Source CFD Toolbox
   \\    /   O peration     | Website:  https://openfoam.org
    \\  /    A nd           | Version:  7
     \\/     M anipulation  |
\*---------------------------------------------------------------------------*/
FoamFile
{
    version     2.0;
    format      ascii;
    class       volScalarField;
    location    "6.5";
    object      rho;
}
// * * * * * * * * * * * * * * * * * * * * * * * * * * * * * * * * * * * * * //

dimensions      [1 -3 0 0 0 0 0];

internalField   nonuniform List<scalar> 
4032
(
1.40001
1.40001
1.40001
1.40001
1.40001
1.40001
1.40001
1.40001
1.40001
1.40001
1.40001
1.58724
4.40477
5.46741
5.51444
5.59012
5.65714
5.72075
5.77906
5.83149
5.87803
5.9154
5.94391
5.96501
1.40001
1.40001
1.40001
1.40001
1.40001
1.40001
1.40001
1.40001
1.40001
1.40001
1.40001
1.56407
4.33486
5.45225
5.50922
5.58335
5.64903
5.71096
5.76746
5.81749
5.8612
5.89577
5.92115
5.94115
1.40001
1.40001
1.40001
1.40001
1.40001
1.40001
1.40001
1.40001
1.40001
1.40001
1.40001
1.50842
4.2259
5.44312
5.49416
5.5674
5.63312
5.69455
5.75005
5.79821
5.83925
5.87077
5.89129
5.90828
1.40001
1.40001
1.40001
1.40001
1.40001
1.40001
1.40001
1.40001
1.40001
1.40001
1.40001
1.41281
4.04637
5.4329
5.47687
5.54274
5.60438
5.66161
5.71384
5.75982
5.79976
5.83017
5.84761
5.86099
1.40001
1.40001
1.40001
1.40001
1.40001
1.40001
1.40001
1.40001
1.40001
1.40001
1.40001
1.40019
3.77046
5.37266
5.42923
5.49294
5.55555
5.61216
5.66228
5.70344
5.73584
5.76035
5.77377
5.79216
1.40001
1.40001
1.40001
1.40001
1.40001
1.40001
1.40001
1.40001
1.40001
1.40001
1.40001
1.4
3.41216
5.28902
5.38992
5.44863
5.50782
5.55718
5.59912
5.63367
5.6618
5.68529
5.69448
5.68539
1.40001
1.40001
1.40001
1.40001
1.40001
1.40001
1.40001
1.40001
1.40001
1.40001
1.40001
1.4
2.99077
5.17136
5.36067
5.41082
5.45826
5.49392
5.521
5.5407
5.54778
5.53602
5.51754
5.50978
1.40001
1.40001
1.40001
1.40001
1.40001
1.40001
1.40001
1.40001
1.40001
1.40001
1.40001
1.4
2.51618
5.01223
5.36838
5.39338
5.42108
5.43825
5.44371
5.44116
5.42244
5.39236
5.33779
5.31328
1.40001
1.40001
1.40001
1.40001
1.40001
1.40001
1.40001
1.40001
1.40001
1.40001
1.40001
1.40001
1.99524
4.77233
5.39978
5.37678
5.38741
5.38541
5.36921
5.33944
5.27946
5.17611
4.8629
4.01823
1.40001
1.40001
1.40001
1.40001
1.40001
1.40001
1.40001
1.40001
1.40001
1.40001
1.40001
1.40001
1.50153
4.35907
5.42654
5.36819
5.34443
5.31591
5.27659
5.21669
5.11536
4.9276
4.5992
3.70342
1.40001
1.40001
1.40001
1.40001
1.40001
1.40001
1.40001
1.40001
1.40001
1.40001
1.40001
1.40001
1.40135
3.64803
5.18668
5.24214
5.25341
5.22553
5.1765
5.09213
4.96153
4.72927
4.38844
3.56535
1.40001
1.40001
1.40001
1.40001
1.40001
1.40001
1.40001
1.40001
1.40001
1.40001
1.40001
1.40001
1.39998
2.82948
4.9984
5.20128
5.1994
5.16606
5.1039
4.99591
4.83686
4.59296
4.2156
3.54629
1.40001
1.40001
1.40001
1.40001
1.40001
1.40001
1.40001
1.40001
1.40001
1.40001
1.40001
1.40001
1.4
2.00596
4.73723
5.20589
5.15692
5.09957
5.02261
4.90208
4.72747
4.4846
4.10098
3.57455
1.40001
1.40001
1.40001
1.40001
1.40001
1.40001
1.40001
1.40001
1.40001
1.40001
1.40001
1.40001
1.4
1.47933
4.01449
5.10823
5.07937
5.02608
4.94384
4.82015
4.64807
4.40281
4.04495
3.62448
1.40001
1.40001
1.40001
1.40001
1.40001
1.40001
1.40001
1.40001
1.40001
1.40001
1.40001
1.40001
1.4
1.4004
2.94387
4.94284
5.04069
4.98848
4.89806
4.75729
4.58552
4.33622
4.02114
3.66965
1.40001
1.40001
1.40001
1.40001
1.40001
1.40001
1.40001
1.40001
1.40001
1.40001
1.40001
1.40001
1.40001
1.4
1.83442
4.69232
5.10011
4.96952
4.84994
4.70213
4.51528
4.29035
4.01979
3.71797
1.40001
1.40001
1.40001
1.40001
1.40001
1.40001
1.40001
1.40001
1.40001
1.40001
1.40001
1.40001
1.40001
1.4
1.4288
3.77097
4.95977
4.86967
4.77684
4.64019
4.46611
4.25978
4.01893
3.75387
1.40001
1.40001
1.40001
1.40001
1.40001
1.40001
1.40001
1.40001
1.40001
1.40001
1.40001
1.40001
1.40001
1.4
1.39995
2.47776
4.76333
4.84567
4.77261
4.64136
4.46848
4.26242
4.02868
3.78695
1.40001
1.40001
1.40001
1.40001
1.40001
1.40001
1.40001
1.40001
1.40001
1.40001
1.40001
1.40001
1.40001
1.40001
1.39999
1.57918
4.02471
4.86155
4.76971
4.63035
4.45921
4.2628
4.04403
3.82026
1.40001
1.40001
1.40001
1.40001
1.40001
1.40001
1.40001
1.40001
1.40001
1.40001
1.40001
1.40001
1.40001
1.40001
1.4
1.40345
2.72074
4.6762
4.74102
4.60697
4.44983
4.26663
4.06598
3.8571
1.40001
1.40001
1.40001
1.40001
1.40001
1.40001
1.40001
1.40001
1.40001
1.40001
1.40001
1.40001
1.40001
1.40001
1.4
1.4
1.6612
4.03704
4.77428
4.61741
4.46183
4.28134
4.09237
3.89604
1.40001
1.40001
1.40001
1.40001
1.40001
1.40001
1.40001
1.40001
1.40001
1.40001
1.40001
1.40001
1.40001
1.40001
1.40001
1.4
1.40806
2.6897
4.58491
4.60226
4.45808
4.28923
4.1148
3.93667
1.40001
1.40001
1.40001
1.40001
1.40001
1.40001
1.40001
1.40001
1.40001
1.40001
1.40001
1.40001
1.40001
1.40001
1.40001
1.40001
1.40003
1.64195
3.84522
4.66057
4.49158
4.32909
4.16334
3.99487
1.40001
1.40001
1.40001
1.40001
1.40001
1.40001
1.40001
1.40001
1.40001
1.40001
1.40001
1.40001
1.40001
1.40001
1.40001
1.40001
1.40001
1.40716
2.3928
4.35052
4.51448
4.36849
4.21272
4.04347
1.40001
1.40001
1.40001
1.40001
1.40001
1.40001
1.40001
1.40001
1.40001
1.40001
1.40001
1.40001
1.40001
1.40001
1.40001
1.40001
1.40001
1.40004
1.53629
3.38033
4.54355
4.4343
4.28329
4.08493
1.40001
1.40001
1.40001
1.40001
1.40001
1.40001
1.40001
1.40001
1.40001
1.40001
1.40001
1.40001
1.40001
1.40001
1.40001
1.40001
1.40001
1.40001
1.40266
2.00196
4.03597
4.4828
4.31934
4.11485
1.40001
1.40001
1.40001
1.40001
1.40001
1.40001
1.40001
1.40001
1.40001
1.40001
1.40001
1.40001
1.40001
1.40001
1.40001
1.40001
1.40001
1.40001
1.40002
1.44679
2.72283
4.32648
4.30746
4.39504
1.40001
1.40001
1.40001
1.40001
1.40001
1.40001
1.40001
1.40001
1.40001
1.40001
1.40001
1.40001
1.40001
1.40001
1.40001
1.40001
1.40001
1.40001
1.40001
1.40062
1.64384
3.42078
4.34816
5.35813
1.40001
1.40001
1.40001
1.40001
1.40001
1.40001
1.40001
1.40001
1.40001
1.40001
1.40001
1.40001
1.40001
1.40001
1.40001
1.40001
1.40001
1.40001
1.40001
1.40001
1.40829
2.01942
4.62053
6.2056
1.40001
1.40001
1.40001
1.40001
1.40001
1.40001
1.40001
1.40001
1.40001
1.40001
1.40001
1.40001
1.40001
1.40001
1.40001
1.40001
1.40001
1.40001
1.40001
1.40001
1.40007
1.46372
4.6342
6.28213
1.40001
1.40001
1.40001
1.40001
1.40001
1.40001
1.40001
1.40001
1.40001
1.40001
1.40001
1.40001
1.40001
1.40001
1.40001
1.40001
1.40001
1.40001
1.40001
1.40001
1.40001
1.50188
4.40417
5.83192
1.40001
1.40001
1.40001
1.40001
1.40001
1.40001
1.40001
1.40001
1.40001
1.40001
1.40001
1.40001
1.40001
1.40001
1.40001
1.40001
1.40001
1.40001
1.40001
1.40001
1.40001
1.50079
4.26178
5.54944
1.40001
1.40001
1.40001
1.40001
1.40001
1.40001
1.40001
1.40001
1.40001
1.40001
1.40001
1.40001
1.40001
1.40001
1.40001
1.40001
1.40001
1.40001
1.40001
1.40001
1.40001
1.43629
4.08748
5.38653
1.40001
1.40001
1.40001
1.40001
1.40001
1.40001
1.40001
1.40001
1.40001
1.40001
1.40001
1.40001
1.40001
1.40001
1.40001
1.40001
1.40001
1.40001
1.40001
1.40001
1.40001
1.40168
3.89984
5.36397
1.40001
1.40001
1.40001
1.40001
1.40001
1.40001
1.40001
1.40001
1.40001
1.40001
1.40001
1.40001
1.40001
1.40001
1.40001
1.40001
1.40001
1.40001
1.40001
1.40001
1.40001
1.40002
3.71461
5.35905
1.40001
1.40001
1.40001
1.40001
1.40001
1.40001
1.40001
1.40001
1.40001
1.40001
1.40001
1.40001
1.40001
1.40001
1.40001
1.40001
1.40001
1.40001
1.40001
1.40001
1.40001
1.40001
3.53281
5.36713
1.40001
1.40001
1.40001
1.40001
1.40001
1.40001
1.40001
1.40001
1.40001
1.40001
1.40001
1.40001
1.40001
1.40001
1.40001
1.40001
1.40001
1.40001
1.40001
1.40001
1.40001
1.40001
3.37293
5.36178
1.40001
1.40001
1.40001
1.40001
1.40001
1.40001
1.40001
1.40001
1.40001
1.40001
1.40001
1.40001
1.40001
1.40001
1.40001
1.40001
1.40001
1.40001
1.40001
1.40001
1.40001
1.40001
3.24691
5.34712
1.40001
1.40001
1.40001
1.40001
1.40001
1.40001
1.40001
1.40001
1.40001
1.40001
1.40001
1.40001
1.40001
1.40001
1.40001
1.40001
1.40001
1.40001
1.40001
1.40001
1.40001
1.40001
3.16321
5.32834
1.40001
1.40001
1.40001
1.40001
1.40001
1.40001
1.40001
1.40001
1.40001
1.40001
1.40001
1.40001
1.40001
1.40001
1.40001
1.40001
1.40001
1.40001
1.40001
1.40001
1.40001
1.40001
3.12691
5.31027
1.34108
0.532788
0.188938
0.172326
0.222057
0.312391
0.382762
0.472013
0.604389
0.723318
0.823881
0.864161
0.86835
0.896321
0.950031
1.0158
1.04083
1.05298
1.05415
1.30358
2.37219
2.66617
2.75439
2.81378
2.84111
2.86126
2.88817
2.91086
2.91391
2.89858
2.87517
2.85879
2.85807
2.86842
2.87816
2.87456
2.85112
2.81982
2.79161
2.77312
2.76602
2.76508
2.75989
2.74268
2.71629
2.687
2.65832
2.63233
2.61046
2.59394
2.58382
2.57346
2.5494
2.51715
2.48275
2.44879
2.41895
2.39439
2.37972
2.36964
2.34939
2.32535
2.30079
2.27691
2.25449
2.23305
2.21094
2.1869
2.16054
2.13207
2.10397
2.08002
2.05964
2.0404
2.02057
1.99969
1.97725
1.9532
1.92876
1.90535
1.88327
1.86132
1.8381
1.81302
1.78673
1.7623
1.74416
1.7302
1.71781
1.7046
1.68846
1.66354
1.6272
1.59915
1.58269
1.58436
1.98412
1.2743
0.850495
0.611755
0.608852
0.608901
0.568202
0.543541
0.552223
0.592278
0.650848
0.715211
0.775041
0.828662
0.893032
0.965006
0.994282
1.0197
1.03275
1.2455
2.34929
2.77717
2.83642
2.87518
2.89996
2.91309
2.91691
2.91549
2.91407
2.91381
2.91063
2.90329
2.89172
2.88005
2.87135
2.86653
2.85884
2.84165
2.81848
2.79679
2.78129
2.77278
2.76459
2.74796
2.72408
2.69804
2.67247
2.64918
2.62894
2.61093
2.59344
2.57224
2.54757
2.52217
2.49395
2.46461
2.43576
2.41106
2.39415
2.37984
2.35748
2.33241
2.30489
2.27614
2.25232
2.23268
2.21549
2.19683
2.17427
2.14877
2.11942
2.08835
2.06276
2.0428
2.02439
2.0046
1.98388
1.96136
1.93606
1.90903
1.88426
1.86292
1.84205
1.8203
1.79778
1.77426
1.75018
1.72982
1.71509
1.7027
1.68832
1.66757
1.63974
1.60902
1.59008
1.60574
2.47024
1.80491
1.42192
1.11799
0.937036
0.858685
0.784762
0.674738
0.623259
0.633803
0.67165
0.725335
0.793314
0.847187
0.874914
0.919885
0.968294
1.0096
1.04015
1.16697
2.41871
3.07232
3.00447
2.96112
2.98569
3.02793
3.03824
3.02016
2.99325
2.97748
2.97846
2.99282
3.0007
2.9845
2.95709
2.93012
2.90859
2.89491
2.8829
2.86829
2.85267
2.83948
2.82729
2.80604
2.77681
2.74691
2.71911
2.69554
2.67934
2.66984
2.65298
2.624
2.59166
2.55956
2.52978
2.50241
2.47617
2.45344
2.43635
2.41747
2.3937
2.36964
2.34309
2.31167
2.27695
2.24751
2.22584
2.20802
2.19325
2.17463
2.15255
2.12396
2.0893
2.05926
2.03787
2.01962
2.00222
1.98351
1.96243
1.93514
1.90009
1.86731
1.84646
1.83014
1.81427
1.7976
1.77695
1.75096
1.7229
1.69921
1.68056
1.66466
1.65033
1.63548
1.62563
1.67761
2.82409
2.26282
1.85732
1.54668
1.29315
1.15709
1.08059
0.975781
0.851905
0.800496
0.79857
0.79683
0.797566
0.797775
0.799655
0.81259
0.859726
0.922409
0.997838
1.13979
2.05127
3.29273
3.3105
3.16397
3.12226
3.14879
3.16829
3.16012
3.13401
3.10137
3.086
3.08107
3.08799
3.08787
3.06961
3.0426
3.01088
2.98666
2.96678
2.9498
2.93494
2.92279
2.90967
2.88712
2.85978
2.82746
2.79513
2.7689
2.74876
2.73547
2.71612
2.69002
2.661
2.62717
2.59356
2.56533
2.54039
2.51847
2.4952
2.46916
2.44198
2.4153
2.38944
2.36223
2.33231
2.30219
2.27495
2.25145
2.23054
2.21042
2.18936
2.16477
2.13261
2.09661
2.06804
2.04764
2.02981
2.0125
1.99437
1.97324
1.94277
1.90273
1.8713
1.85281
1.83762
1.82258
1.80667
1.78629
1.75463
1.7152
1.68639
1.67187
1.66539
1.67396
1.69849
1.82253
3.03585
2.57765
2.2192
1.91656
1.63176
1.41651
1.31101
1.22853
1.12713
1.00087
0.905911
0.875063
0.857703
0.845131
0.827198
0.821251
0.829753
0.854736
0.975868
1.18359
1.55685
2.74859
3.44625
3.38074
3.29958
3.25793
3.2661
3.27264
3.26226
3.23882
3.21009
3.18995
3.17825
3.17553
3.16759
3.14819
3.12178
3.09093
3.06628
3.0455
3.02884
3.01457
2.9949
2.97105
2.9449
2.91469
2.8842
2.85862
2.8372
2.81542
2.79032
2.76409
2.73466
2.69978
2.66625
2.64113
2.61898
2.59612
2.5699
2.54133
2.51042
2.47811
2.44611
2.41564
2.3876
2.36194
2.33696
2.31116
2.28549
2.26159
2.23823
2.21282
2.18273
2.14856
2.11611
2.08986
2.06878
2.04976
2.03097
2.01068
1.98523
1.95033
1.91511
1.89245
1.87541
1.85884
1.84133
1.82005
1.79037
1.75108
1.7165
1.70517
1.71101
1.74829
1.8327
2.00653
3.20693
2.80633
2.46026
2.19814
1.9601
1.70835
1.49297
1.40737
1.34423
1.2534
1.13659
1.01167
0.972983
0.963579
0.932011
0.910001
0.936502
1.01912
1.18072
1.36083
1.41254
1.77684
2.88373
3.43029
3.42814
3.36469
3.32244
3.33359
3.34688
3.33072
3.30576
3.26889
3.24749
3.23448
3.22933
3.21567
3.19329
3.166
3.14141
3.12092
3.10361
3.08172
3.05652
3.03131
3.00584
2.97945
2.9536
2.9291
2.90365
2.8769
2.85027
2.82358
2.79451
2.75976
2.72559
2.70156
2.67961
2.65571
2.63018
2.60245
2.57087
2.53507
2.4991
2.46856
2.4433
2.41955
2.3944
2.36639
2.33645
2.30802
2.28195
2.25583
2.22808
2.1985
2.16683
2.13479
2.10769
2.08688
2.06836
2.04917
2.02651
1.99663
1.96022
1.9306
1.91148
1.89445
1.87614
1.85363
1.82543
1.79059
1.76247
1.76396
1.79946
1.89508
2.02731
2.1685
3.31593
2.9834
2.66318
2.37546
2.17219
1.97583
1.76373
1.56414
1.46146
1.4126
1.33922
1.23498
1.11277
1.05483
1.02689
1.04422
1.15369
1.3255
1.43116
1.51565
1.53396
1.56037
1.88857
2.83567
3.4217
3.42614
3.37618
3.3566
3.37919
3.38527
3.36947
3.33393
3.2991
3.2794
3.2663
3.25588
3.23567
3.21316
3.19245
3.17538
3.15597
3.12953
3.09894
3.07066
3.04706
3.02514
3.00347
2.97877
2.95061
2.92035
2.89162
2.8647
2.83663
2.80416
2.77024
2.74346
2.72043
2.69758
2.67383
2.64748
2.61556
2.57567
2.53568
2.50707
2.48462
2.46265
2.43919
2.41243
2.38057
2.34535
2.31296
2.28543
2.26049
2.23594
2.20923
2.178
2.14444
2.11648
2.09598
2.07773
2.05815
2.03402
2.00212
1.96694
1.93932
1.91948
1.90068
1.8799
1.85984
1.83761
1.82976
1.857
1.95795
2.08531
2.2076
2.27414
3.40822
3.11077
2.83202
2.56228
2.31881
2.13994
1.97396
1.78785
1.62456
1.51573
1.45734
1.38933
1.29673
1.22602
1.22895
1.32782
1.5598
1.66369
1.65234
1.64846
1.63493
1.63475
1.67317
1.94336
2.74677
3.37158
3.4234
3.39653
3.39223
3.41474
3.40956
3.38263
3.34458
3.31892
3.29999
3.28612
3.26546
3.24315
3.22404
3.20866
3.18985
3.16451
3.1337
3.10049
3.07507
3.0537
3.03198
3.00736
2.98021
2.9502
2.92038
2.89227
2.86398
2.8334
2.80036
2.76951
2.74437
2.722
2.69936
2.6745
2.64408
2.60479
2.5638
2.5338
2.51111
2.48998
2.46831
2.44404
2.41311
2.37291
2.33265
2.30349
2.28142
2.26089
2.2391
2.21292
2.1795
2.14301
2.11437
2.09403
2.07578
2.05585
2.03093
1.99804
1.96287
1.93741
1.91749
1.90296
1.89665
1.90217
1.93508
2.03885
2.18715
2.2533
2.3034
2.32446
3.48139
3.2078
2.95731
2.7162
2.4754
2.27851
2.11816
1.96686
1.81235
1.66318
1.55314
1.49826
1.47816
1.50491
1.57354
1.75689
1.90186
1.89438
1.83987
1.78615
1.7714
1.77973
1.78835
1.80819
1.97571
2.62974
3.26609
3.40208
3.43883
3.45031
3.44457
3.41668
3.37821
3.35213
3.33473
3.32075
3.2991
3.27275
3.24955
3.23125
3.21411
3.19232
3.16618
3.13282
3.10046
3.07542
3.05105
3.02627
3.00047
2.9725
2.9427
2.91301
2.88424
2.85521
2.82407
2.7915
2.76173
2.73623
2.71236
2.68753
2.65925
2.62564
2.58934
2.55643
2.5296
2.50661
2.4845
2.46063
2.43065
2.39014
2.34659
2.31592
2.29497
2.27626
2.25714
2.23529
2.20675
2.16942
2.13151
2.10428
2.08455
2.06629
2.04515
2.01702
1.98206
1.95182
1.93478
1.93157
1.95136
2.01182
2.12678
2.29308
2.36174
2.36125
2.35816
2.35583
3.54051
3.29082
3.05641
2.83855
2.62053
2.42429
2.2497
2.0933
1.9558
1.82002
1.70564
1.69134
1.78259
1.87142
1.96069
2.07808
2.09453
2.06236
2.01201
1.95828
1.92635
1.91915
1.91711
1.89899
1.91158
2.00795
2.49514
3.1276
3.38147
3.48756
3.49573
3.46432
3.4067
3.37523
3.36139
3.35332
3.33493
3.308
3.27528
3.25176
3.23307
3.21431
3.19132
3.16198
3.12601
3.09364
3.06694
3.04188
3.01671
2.98994
2.96039
2.9296
2.90047
2.87261
2.84376
2.81219
2.77893
2.74793
2.72021
2.69359
2.66657
2.6387
2.60912
2.57731
2.54595
2.51798
2.4926
2.46699
2.4377
2.40179
2.36221
2.32845
2.30348
2.28331
2.26464
2.24549
2.22287
2.19228
2.15356
2.11639
2.08894
2.06787
2.04775
2.0247
1.99836
1.97175
1.96586
1.98562
2.07287
2.20293
2.35564
2.46168
2.46542
2.43757
2.40194
2.38269
3.59264
3.36506
3.14267
2.93997
2.73969
2.55146
2.37487
2.20881
2.08218
1.99723
1.98438
2.09091
2.26043
2.26143
2.2613
2.26607
2.24387
2.21795
2.18526
2.13842
2.09091
2.07054
2.04946
2.03575
2.00201
1.98919
2.04008
2.37533
2.96642
3.35391
3.51223
3.51474
3.45625
3.39862
3.37997
3.37503
3.36549
3.34309
3.30856
3.2756
3.25451
3.23489
3.21164
3.18331
3.14786
3.11339
3.08536
3.05987
3.03452
3.00739
2.97699
2.9455
2.91654
2.88935
2.86177
2.83152
2.79735
2.76238
2.73061
2.70167
2.67427
2.64776
2.62076
2.59152
2.55998
2.52868
2.49902
2.47018
2.44067
2.40944
2.3764
2.34346
2.31424
2.29003
2.26919
2.24973
2.22948
2.20469
2.17168
2.13351
2.09859
2.07095
2.04749
2.02969
2.0142
2.01076
2.03517
2.1327
2.2873
2.40487
2.50674
2.5246
2.51001
2.48184
2.44525
2.41059
3.64641
3.43649
3.22691
3.03032
2.84535
2.66086
2.48265
2.33732
2.28839
2.33605
2.41053
2.58049
2.62559
2.54644
2.4588
2.40483
2.37899
2.37412
2.35121
2.3058
2.24157
2.21456
2.18866
2.16195
2.13435
2.09165
2.05828
2.07549
2.27391
2.78612
3.27244
3.4867
3.49651
3.4325
3.404
3.38979
3.3869
3.36954
3.34117
3.30538
3.27829
3.25392
3.22731
3.19685
3.16347
3.13286
3.10589
3.08
3.05342
3.02449
2.99254
2.9613
2.93288
2.90537
2.87711
2.84624
2.81186
2.77718
2.74574
2.7164
2.68709
2.65715
2.62667
2.59608
2.56595
2.53648
2.50721
2.47735
2.44694
2.41606
2.38507
2.3545
2.32599
2.30042
2.27694
2.25382
2.23043
2.20538
2.17652
2.14303
2.11022
2.08029
2.05885
2.04606
2.05426
2.09609
2.20317
2.38527
2.48942
2.52902
2.54795
2.54754
2.53284
2.51439
2.49545
2.45643
3.70139
3.5044
3.30734
3.11098
2.92964
2.7697
2.62606
2.61588
2.73392
2.80606
2.84708
2.90438
2.86581
2.76011
2.64334
2.55922
2.52906
2.52603
2.50592
2.46241
2.39695
2.33899
2.32041
2.29046
2.26237
2.22536
2.17251
2.1146
2.1189
2.22197
2.60521
3.12991
3.42553
3.44464
3.43462
3.41835
3.41233
3.38851
3.36347
3.3318
3.30409
3.27537
3.2428
3.20816
3.17899
3.15358
3.12869
3.10268
3.07381
3.04104
3.00752
2.97831
2.95144
2.92372
2.89335
2.85847
2.82047
2.78714
2.76063
2.73518
2.70734
2.67483
2.63672
2.59707
2.56327
2.53656
2.51225
2.48791
2.46152
2.43119
2.39668
2.36199
2.33247
2.30844
2.28663
2.26347
2.23736
2.20774
2.17474
2.14229
2.11561
2.0934
2.08927
2.10723
2.1795
2.30297
2.4729
2.60005
2.60668
2.58632
2.56833
2.55953
2.55605
2.54853
2.53827
2.50772
3.75625
3.56831
3.38045
3.18261
3.03114
2.9464
2.9838
3.14805
3.26009
3.18051
3.10962
3.08572
3.0337
2.94279
2.83493
2.73938
2.6946
2.67963
2.65393
2.6068
2.54539
2.46936
2.43411
2.41124
2.37848
2.34613
2.30192
2.24234
2.17306
2.17151
2.2188
2.46243
2.94506
3.2962
3.39196
3.45238
3.44719
3.41353
3.37975
3.34935
3.32648
3.29811
3.26003
3.22163
3.19767
3.17565
3.15272
3.12734
3.09587
3.05592
3.01849
2.99273
2.96956
2.94437
2.91421
2.87517
2.82788
2.78989
2.76691
2.74684
2.72513
2.69824
2.6601
2.60754
2.55747
2.5282
2.50957
2.49286
2.47459
2.45116
2.41766
2.37411
2.33375
2.30783
2.28919
2.27067
2.24852
2.21862
2.18284
2.14706
2.12027
2.12326
2.1554
2.25997
2.4129
2.55108
2.67786
2.6952
2.67602
2.63357
2.59926
2.5844
2.57585
2.5755
2.57167
2.54621
3.81199
3.62758
3.44811
3.2919
3.29399
3.41638
3.53558
3.64055
3.59479
3.43343
3.29407
3.2283
3.1905
3.12156
3.02031
2.92722
2.86338
2.82917
2.80069
2.74512
2.6827
2.60714
2.55258
2.52781
2.49484
2.46093
2.42097
2.36677
2.30095
2.23738
2.21658
2.23503
2.37289
2.73512
3.12508
3.35701
3.44667
3.43771
3.40338
3.37799
3.35323
3.32402
3.28199
3.23775
3.21457
3.19635
3.1771
3.15316
3.12077
3.07336
3.02627
3.0018
2.98253
2.96142
2.9358
2.90087
2.85064
2.79742
2.76779
2.74912
2.73127
2.71098
2.68249
2.6338
2.56966
2.52674
2.50743
2.49287
2.47887
2.46234
2.43811
2.39828
2.34523
2.30527
2.28468
2.2698
2.25285
2.23007
2.20267
2.16926
2.16849
2.21257
2.33158
2.51499
2.62737
2.71386
2.7501
2.73838
2.71457
2.68404
2.6504
2.62374
2.60854
2.59855
2.59574
2.57581
3.84904
3.68919
3.55297
3.61841
3.86427
3.97213
3.94155
3.90356
3.7869
3.62558
3.47317
3.39312
3.3602
3.29925
3.19596
3.10468
3.03076
2.97521
2.94141
2.88447
2.8117
2.74417
2.67977
2.64769
2.61526
2.57311
2.53224
2.47741
2.41145
2.35416
2.30188
2.27177
2.27502
2.32675
2.5492
2.92755
3.26571
3.37612
3.4009
3.41313
3.39024
3.36038
3.31357
3.25847
3.22916
3.21192
3.19646
3.17478
3.14547
3.09965
3.03971
3.00528
2.98689
2.96931
2.94777
2.92118
2.8831
2.82746
2.77242
2.74362
2.72611
2.70951
2.68735
2.65416
2.60767
2.55219
2.50792
2.48604
2.47125
2.45837
2.44252
2.4168
2.37506
2.32231
2.27941
2.26021
2.24722
2.24019
2.23539
2.24825
2.31906
2.44908
2.63703
2.75053
2.76971
2.77975
2.7736
2.75976
2.7443
2.72943
2.71161
2.68512
2.65385
2.63364
2.62465
2.60881
3.91984
3.85291
3.9992
4.28446
4.42019
4.29163
4.16385
4.067
3.95279
3.81604
3.66907
3.57812
3.53015
3.46976
3.37006
3.26571
3.19331
3.12499
3.07721
3.02729
2.94771
2.87728
2.81406
2.76881
2.73514
2.69036
2.63954
2.58622
2.52067
2.4604
2.41621
2.37129
2.326
2.31147
2.32675
2.42869
2.71055
3.06235
3.28552
3.36642
3.40921
3.39582
3.35241
3.29006
3.24372
3.22226
3.20443
3.18637
3.16175
3.12699
3.06932
3.01293
2.98433
2.96458
2.94688
2.92485
2.89975
2.8643
2.80949
2.74912
2.70919
2.68731
2.67107
2.65232
2.62934
2.59466
2.54257
2.49118
2.46255
2.44717
2.43363
2.41376
2.38648
2.35007
2.30116
2.26551
2.25551
2.26675
2.30895
2.42825
2.58224
2.75269
2.87493
2.87757
2.85278
2.81684
2.79519
2.78386
2.7786
2.77207
2.75969
2.74218
2.71346
2.6805
2.66585
2.64877
4.11612
4.39017
4.70513
4.83294
4.71062
4.4759
4.32225
4.22555
4.13598
4.0127
3.86399
3.76255
3.70342
3.63922
3.5464
3.42832
3.34914
3.28422
3.22241
3.17223
3.10251
3.0169
2.95109
2.89185
2.8478
2.80293
2.74976
2.69168
2.62987
2.56776
2.51379
2.47268
2.42692
2.37385
2.34019
2.32461
2.3517
2.51475
2.83869
3.13313
3.31965
3.37085
3.36713
3.31869
3.26478
3.2338
3.21269
3.191
3.1668
3.1375
3.0934
3.04226
2.99619
2.96062
2.93807
2.92475
2.90641
2.87985
2.83665
2.78054
2.72042
2.67673
2.65692
2.64768
2.63569
2.61308
2.57687
2.52995
2.4778
2.43727
2.41505
2.40154
2.38736
2.36758
2.33744
2.30215
2.31182
2.37296
2.51902
2.69762
2.82392
2.93165
2.95298
2.94049
2.91571
2.87423
2.84042
2.82634
2.81723
2.8117
2.8012
2.7864
2.76672
2.73539
2.71185
2.69068
4.8598
5.17336
5.19377
5.10571
4.89979
4.66031
4.50327
4.41369
4.33099
4.20604
4.05101
3.93952
3.87651
3.80953
3.71756
3.60085
3.50185
3.44115
3.3779
3.31613
3.25087
3.1623
3.0803
3.01651
2.95942
2.90865
2.85625
2.7979
2.73309
2.66846
2.61179
2.56199
2.51661
2.46772
2.40794
2.35645
2.3216
2.31641
2.38048
2.61411
2.93375
3.18859
3.3036
3.30697
3.29245
3.2389
3.1739
3.1339
3.11754
3.10794
3.09419
3.0643
3.01996
2.96886
2.91087
2.87352
2.85621
2.84177
2.82651
2.79847
2.74881
2.69243
2.64413
2.61773
2.60111
2.59046
2.58172
2.55455
2.50743
2.45259
2.40645
2.38064
2.36525
2.36307
2.37086
2.40864
2.50938
2.67706
2.85558
2.91284
2.95119
2.98389
2.99282
2.98434
2.96859
2.94043
2.9
2.87291
2.8596
2.84912
2.83906
2.82563
2.81
2.78619
2.75501
2.72322
5.74358
5.63577
5.44152
5.25809
5.05738
4.84467
4.69793
4.61185
4.5251
4.39624
4.24001
4.12132
4.05483
3.98687
3.88864
3.778
3.66585
3.58979
3.52893
3.45868
3.38615
3.30145
3.20757
3.13513
3.0741
3.01615
2.95792
2.89715
2.83035
2.7603
2.69732
2.64319
2.59349
2.54291
2.48698
2.42117
2.35316
2.30578
2.2787
2.29376
2.42083
2.70124
2.98233
3.17467
3.23272
3.21878
3.16301
3.09339
3.05966
3.04692
3.03845
3.02912
3.00674
2.9644
2.90046
2.8394
2.80734
2.79314
2.7791
2.7621
2.74092
2.69825
2.64161
2.60453
2.58505
2.57016
2.55273
2.53558
2.51314
2.46858
2.40932
2.38028
2.37672
2.39531
2.4869
2.65038
2.8394
3.0122
3.05632
3.03831
3.02921
3.02259
3.02667
3.0218
3.00566
2.98161
2.94424
2.90804
2.89074
2.87862
2.86837
2.85547
2.83889
2.81735
2.78819
2.74779
6.05187
5.77056
5.56801
5.40063
5.21766
5.02015
4.88147
4.79674
4.70303
4.57074
4.41665
4.29449
4.22169
4.15502
4.05446
3.93975
3.83208
3.73366
3.66126
3.59119
3.50982
3.42322
3.3309
3.24599
3.17733
3.11451
3.05124
2.98422
2.9128
2.83824
2.76539
2.70183
2.64775
2.5948
2.54012
2.4766
2.40442
2.33005
2.27884
2.23822
2.23073
2.28228
2.46537
2.73108
2.96023
3.1007
3.1085
3.06732
3.02318
2.98654
2.96341
2.94573
2.92871
2.90879
2.87644
2.82271
2.76925
2.73894
2.72308
2.70799
2.69219
2.67404
2.64503
2.59933
2.55839
2.53653
2.51874
2.49775
2.47455
2.45038
2.41758
2.40981
2.44403
2.56998
2.7779
2.93873
3.08158
3.13737
3.1335
3.10564
3.0636
3.04344
3.0348
3.03292
3.01932
3.00004
2.97616
2.9428
2.9162
2.90327
2.88969
2.87206
2.85269
2.83261
2.81358
2.77377
5.9539
5.7395
5.59298
5.46587
5.30468
5.15556
5.03949
4.96
4.86776
4.74067
4.58505
4.4526
4.36905
4.29694
4.2011
4.07655
3.96778
3.87021
3.77948
3.70175
3.61887
3.52658
3.43166
3.34144
3.26154
3.18943
3.11928
3.04771
2.97299
2.89538
2.81754
2.74345
2.67534
2.61232
2.551
2.48963
2.42873
2.36131
2.29597
2.236
2.19982
2.15302
2.15794
2.24694
2.46445
2.71441
2.912
3.00524
2.98734
2.93041
2.87583
2.84868
2.83431
2.8247
2.81284
2.7909
2.74513
2.68785
2.65973
2.64681
2.63592
2.62176
2.60294
2.57419
2.5326
2.49326
2.46663
2.44839
2.44476
2.44369
2.46206
2.53632
2.69054
2.90757
3.02528
3.09967
3.15391
3.16663
3.1579
3.12858
3.07849
3.04525
3.034
3.02778
3.0298
3.01986
3.00304
2.97611
2.93903
2.90225
2.88006
2.86764
2.859
2.84667
2.83171
2.79342
5.57827
5.51013
5.44406
5.38056
5.31085
5.21351
5.10886
5.02743
4.93134
4.81287
4.68484
4.56401
4.47905
4.40376
4.31131
4.19109
4.07266
3.97939
3.88957
3.80413
3.71819
3.62433
3.52404
3.42579
3.33823
3.26008
3.18583
3.11167
3.03512
2.95506
2.87285
2.79228
2.71715
2.64898
2.58519
2.52502
2.46571
2.40446
2.33748
2.27038
2.197
2.13084
2.08294
2.07489
2.11144
2.25178
2.47997
2.72165
2.86786
2.86288
2.8148
2.76671
2.74681
2.73482
2.72902
2.71615
2.69166
2.64236
2.59666
2.58132
2.57182
2.56431
2.55082
2.53092
2.49791
2.44919
2.42006
2.42276
2.43789
2.49976
2.65105
2.83559
3.0287
3.12048
3.12884
3.14203
3.16024
3.16067
3.14715
3.12248
3.08323
3.04822
3.03312
3.02285
3.01501
3.00623
2.99255
2.97472
2.94498
2.90751
2.87977
2.86005
2.84305
2.82582
2.81044
2.77825
5.41076
5.38673
5.3482
5.30097
5.23689
5.15015
5.06486
4.99172
4.91962
4.82533
4.6983
4.58267
4.49397
4.41309
4.31736
4.19731
4.07043
3.97467
3.88187
3.79061
3.7017
3.6064
3.50311
3.40005
3.30687
3.22401
3.14695
3.07166
2.99474
2.91415
2.8312
2.74987
2.67379
2.605
2.54099
2.47952
2.41741
2.35594
2.29397
2.23297
2.17659
2.12483
2.07204
2.02864
1.98933
2.0007
2.08705
2.28046
2.52148
2.72151
2.74879
2.70696
2.66875
2.64927
2.63947
2.62934
2.61145
2.58064
2.53233
2.50575
2.49575
2.49389
2.48788
2.47125
2.44684
2.41287
2.40754
2.42146
2.51385
2.71945
2.93
3.07962
3.16454
3.1675
3.15168
3.13657
3.1241
3.11452
3.10329
3.08986
3.07291
3.04704
3.02156
3.00547
2.99124
2.97623
2.96012
2.94164
2.91892
2.8931
2.86785
2.84549
2.8259
2.80581
2.78583
2.7508
5.32501
5.29576
5.24022
5.1796
5.10876
5.03951
4.97944
4.92076
4.84646
4.74332
4.63075
4.5343
4.45519
4.37804
4.28462
4.17007
4.04797
3.95442
3.86809
3.77741
3.6867
3.5909
3.48815
3.38697
3.29595
3.21393
3.13562
3.05745
2.97749
2.89535
2.81422
2.73835
2.66851
2.60227
2.53698
2.47091
2.40389
2.34049
2.28265
2.22822
2.17542
2.1242
2.07069
2.01674
1.97208
1.93017
1.91813
1.95947
2.10981
2.35345
2.57082
2.61493
2.60664
2.58339
2.56473
2.5496
2.53147
2.50942
2.47496
2.43662
2.41918
2.41119
2.40747
2.40179
2.39737
2.4003
2.42962
2.55031
2.77521
2.97866
3.06821
3.14684
3.17399
3.16174
3.12629
3.08615
3.06723
3.05815
3.05405
3.04871
3.03935
3.02494
3.00023
2.97359
2.95276
2.93455
2.91616
2.89712
2.87799
2.85833
2.83678
2.8141
2.7926
2.77073
2.75035
2.71802
5.3312
5.26968
5.2084
5.14177
5.07115
5.00005
4.92943
4.8541
4.76535
4.66763
4.5745
4.49245
4.41926
4.33791
4.23626
4.12183
4.01146
3.92168
3.83593
3.74449
3.65121
3.55511
3.45568
3.3602
3.27363
3.19293
3.11346
3.03344
2.95292
2.87252
2.79475
2.72195
2.65421
2.58905
2.52495
2.46152
2.39801
2.33427
2.27296
2.21627
2.16551
2.11803
2.0725
2.02527
1.97678
1.92375
1.87422
1.84848
1.8706
1.9852
2.19835
2.41631
2.51867
2.5238
2.50896
2.48926
2.46765
2.44844
2.42955
2.39463
2.35243
2.33586
2.3256
2.3401
2.37445
2.45443
2.63824
2.85949
3.01408
3.0721
3.10534
3.12134
3.11402
3.09633
3.07123
3.03977
3.02166
3.01218
3.0064
3.00075
2.99012
2.97719
2.9577
2.92986
2.90411
2.88413
2.86638
2.84933
2.83245
2.81452
2.79363
2.76905
2.74464
2.72237
2.70576
2.67939
5.34647
5.26898
5.2118
5.14163
5.06738
4.99089
4.91187
4.82643
4.73368
4.63888
4.54909
4.46691
4.38379
4.28825
4.1834
4.07669
3.97983
3.89699
3.8158
3.72555
3.62957
3.52786
3.42865
3.33965
3.25865
3.18162
3.10643
3.02974
2.94802
2.86201
2.77938
2.70622
2.64191
2.58331
2.52661
2.46812
2.40379
2.33261
2.26414
2.20713
2.16127
2.12037
2.08222
2.03985
1.98749
1.92411
1.8674
1.82715
1.80939
1.82199
1.88961
2.06388
2.28261
2.41384
2.43347
2.42421
2.42176
2.40635
2.38537
2.35549
2.31091
2.29079
2.29412
2.31136
2.43724
2.69546
2.9226
3.04635
3.07564
3.05562
3.04843
3.04588
3.04369
3.03655
3.02574
3.00449
2.98206
2.96927
2.95959
2.9515
2.93992
2.92637
2.90835
2.88235
2.85569
2.83579
2.81975
2.80474
2.78953
2.77281
2.75193
2.72579
2.70098
2.68208
2.66919
2.64484
5.37027
5.28031
5.22249
5.1541
5.08348
5.00652
4.9228
4.83373
4.74185
4.65018
4.56198
4.47455
4.37949
4.27863
4.1755
4.07447
3.98293
3.90181
3.81518
3.72083
3.61705
3.50819
3.4133
3.33224
3.25683
3.18315
3.10931
3.03072
2.94381
2.85384
2.77258
2.70355
2.64358
2.58817
2.53331
2.47406
2.40732
2.33478
2.2668
2.21153
2.16763
2.1282
2.0885
2.04416
1.99178
1.93006
1.87553
1.83449
1.80245
1.78207
1.77482
1.80964
1.93886
2.1702
2.30814
2.35296
2.3643
2.3565
2.33439
2.30546
2.28296
2.26675
2.29532
2.44201
2.72233
2.92848
3.04245
3.07934
3.0625
3.0263
3.00517
2.99706
2.99444
2.9924
2.98497
2.97214
2.951
2.93291
2.92144
2.91075
2.89892
2.88598
2.8696
2.84518
2.81652
2.79517
2.77958
2.76581
2.75234
2.73708
2.71599
2.68808
2.66627
2.65244
2.642
2.61789
5.39117
5.29581
5.23892
5.16856
5.09534
5.0168
4.93412
4.84869
4.76173
4.67447
4.58572
4.48996
4.38818
4.28578
4.18439
4.08824
4.0037
3.92117
3.82705
3.72599
3.61794
3.51532
3.42548
3.34429
3.26787
3.19365
3.11716
3.03383
2.94484
2.85844
2.78096
2.71234
2.65138
2.59563
2.54052
2.48048
2.41327
2.3439
2.27978
2.2237
2.17603
2.13481
2.0944
2.04913
1.99813
1.9438
1.89187
1.84726
1.80713
1.77343
1.74813
1.73039
1.74819
1.8467
2.05087
2.23149
2.28497
2.30676
2.29027
2.27432
2.2757
2.32942