/*--------------------------------*- C++ -*----------------------------------*\
  =========                 |
  \\      /  F ield         | OpenFOAM: The Open Source CFD Toolbox
   \\    /   O peration     | Website:  https://openfoam.org
    \\  /    A nd           | Version:  7
     \\/     M anipulation  |
\*---------------------------------------------------------------------------*/
FoamFile
{
    version     2.0;
    format      ascii;
    class       volScalarField;
    location    "6.5";
    object      T;
}
// * * * * * * * * * * * * * * * * * * * * * * * * * * * * * * * * * * * * * //

dimensions      [0 0 0 1 0 0 0];

internalField   nonuniform List<scalar> 
4032
(
1
1
1
1
1
1
1
1
1
1
1
1.17434
2.41409
2.71616
2.72686
2.74231
2.75567
2.76827
2.77975
2.78995
2.79892
2.80613
2.8116
2.81556
1
1
1
1
1
1
1
1
1
1
1
1.15689
2.4002
2.71509
2.72626
2.74096
2.75408
2.76644
2.77761
2.78733
2.79572
2.80235
2.80721
2.81096
1
1
1
1
1
1
1
1
1
1
1
1.1035
2.36265
2.71231
2.72315
2.73797
2.75123
2.76357
2.77458
2.78392
2.79171
2.79769
2.80159
2.80477
1
1
1
1
1
1
1
1
1
1
1
1.00759
2.29459
2.70442
2.71826
2.73333
2.74618
2.75774
2.76809
2.77698
2.78449
2.79014
2.79336
2.79579
1
1
1
1
1
1
1
1
1
1
1
1.00006
2.21272
2.68841
2.70747
2.72319
2.73676
2.74843
2.7585
2.76659
2.77265
2.77677
2.77849
2.78127
1
1
1
1
1
1
1
1
1
1
1
1
2.09855
2.66981
2.6983
2.71277
2.72618
2.73711
2.74621
2.75353
2.759
2.76216
2.76051
2.75491
1
1
1
1
1
1
1
1
1
1
1
1
1.94046
2.63468
2.68253
2.69832
2.71197
2.72217
2.72984
2.73499
2.73655
2.73296
2.72469
2.71749
1
1
1
1
1
1
1
1
1
1
1
1
1.72379
2.56505
2.65593
2.67939
2.69524
2.70553
2.71136
2.71337
2.71046
2.70517
2.69987
2.71097
1
1
1
1
1
1
1
1
1
1
1
1
1.41235
2.44124
2.62948
2.65512
2.67344
2.68494
2.68905
2.68795
2.67964
2.66102
2.6093
2.50746
1
1
1
1
1
1
1
1
1
1
1
1
1.05195
2.30865
2.62981
2.63197
2.64256
2.65345
2.65803
2.65475
2.64159
2.6085
2.5508
2.38648
1
1
1
1
1
1
1
1
1
1
1
1
1.00063
2.14102
2.58872
2.5971
2.60831
2.61589
2.6203
2.61572
2.60052
2.56185
2.49797
2.31418
1
1
1
1
1
1
1
1
1
1
1
1
0.999993
1.83455
2.52429
2.5816
2.58993
2.58908
2.58763
2.5794
2.56042
2.52175
2.44907
2.29032
1
1
1
1
1
1
1
1
1
1
1
1
0.999998
1.37602
2.38046
2.56311
2.56338
2.56188
2.55667
2.54405
2.52104
2.48276
2.40894
2.28858
1
1
1
1
1
1
1
1
1
1
1
1
1
1.03887
2.19535
2.52254
2.53316
2.53232
2.52652
2.51227
2.48804
2.44774
2.37911
2.28779
1
1
1
1
1
1
1
1
1
1
1
1
1
1.00023
1.82977
2.43953
2.51102
2.50806
2.50072
2.48365
2.45906
2.41656
2.35648
2.2834
1
1
1
1
1
1
1
1
1
1
1
1
1
0.999998
1.24249
2.28032
2.49113
2.4779
2.47012
2.45495
2.42888
2.39146
2.33999
2.27838
1
1
1
1
1
1
1
1
1
1
1
1
1
1
1.01363
2.08378
2.44116
2.43182
2.43064
2.42098
2.40039
2.36875
2.32466
2.27156
1
1
1
1
1
1
1
1
1
1
1
1
1
1
1.00001
1.58663
2.32461
2.41238
2.40594
2.39378
2.37438
2.34582
2.30772
2.26269
1
1
1
1
1
1
1
1
1
1
1
1
1
1
0.999998
1.08959
2.11623
2.39065
2.38274
2.36819
2.34765
2.32122
2.28807
2.2501
1
1
1
1
1
1
1
1
1
1
1
1
1
1
0.999999
1.00159
1.66716
2.27744
2.36051
2.34179
2.32227
2.29784
2.26875
2.23555
1
1
1
1
1
1
1
1
1
1
1
1
1
1
1
1
1.13085
2.07763
2.33516
2.31603
2.29967
2.27703
2.25064
2.22066
1
1
1
1
1
1
1
1
1
1
1
1
1
1
1
1
1.00359
1.62724
2.20858
2.29308
2.27351
2.25295
2.23065
2.20563
1
1
1
1
1
1
1
1
1
1
1
1
1
1
1
1
1.00001
1.1191
1.99181
2.26827
2.24887
2.23364
2.21557
2.19407
1
1
1
1
1
1
1
1
1
1
1
1
1
1
1
1
1
1.00306
1.47633
2.10243
2.22617
2.20949
2.19531
2.17669
1
1
1
1
1
1
1
1
1
1
1
1
1
1
1
1
1
1.00001
1.06424
1.83045
2.19494
2.1875
2.17561
2.15331
1
1
1
1
1
1
1
1
1
1
1
1
1
1
1
1
1
1
1.00105
1.2914
2.00107
2.16819
2.14864
2.1279
1
1
1
1
1
1
1
1
1
1
1
1
1
1
1
1
1
1
1
1.02056
1.58689
2.07878
2.10821
2.1528
1
1
1
1
1
1
1
1
1
1
1
1
1
1
1
1
1
1
1
1.00021
1.11482
1.82897
2.06458
2.28114
1
1
1
1
1
1
1
1
1
1
1
1
1
1
1
1
1
1
1
1
1.00327
1.2967
2.09876
2.4366
1
1
1
1
1
1
1
1
1
1
1
1
1
1
1
1
1
1
1
1
1.00002
1.0314
2.27104
2.5869
1
1
1
1
1
1
1
1
1
1
1
1
1
1
1
1
1
1
1
1
1
1.10405
2.36623
2.64407
1
1
1
1
1
1
1
1
1
1
1
1
1
1
1
1
1
1
1
1
1
1.10434
2.37869
2.69345
1
1
1
1
1
1
1
1
1
1
1
1
1
1
1
1
1
1
1
1
1
1.03578
2.32886
2.69444
1
1
1
1
1
1
1
1
1
1
1
1
1
1
1
1
1
1
1
1
1
1.00101
2.25288
2.68782
1
1
1
1
1
1
1
1
1
1
1
1
1
1
1
1
1
1
1
1
1
1
2.17752
2.66624
1
1
1
1
1
1
1
1
1
1
1
1
1
1
1
1
1
1
1
1
1
1
2.10944
2.64936
1
1
1
1
1
1
1
1
1
1
1
1
1
1
1
1
1
1
1
1
1
1
2.05444
2.64386
1
1
1
1
1
1
1
1
1
1
1
1
1
1
1
1
1
1
1
1
1
1
2.01237
2.64434
1
1
1
1
1
1
1
1
1
1
1
1
1
1
1
1
1
1
1
1
1
1
1.98588
2.64661
1
1
1
1
1
1
1
1
1
1
1
1
1
1
1
1
1
1
1
1
1
1
1.97704
2.64753
1.68328
1.2067
0.928502
0.946179
1.11875
1.23959
1.31134
1.42452
1.58453
1.6258
1.63508
1.62861
1.61641
1.63127
1.67582
1.74572
1.77417
1.77096
1.72943
1.96847
2.67267
2.80357
2.79925
2.79012
2.77776
2.77002
2.76884
2.77001
2.76717
2.75573
2.74155
2.72957
2.72302
2.7198
2.71598
2.70561
2.68783
2.66806
2.64969
2.63548
2.62631
2.62043
2.61358
2.60307
2.58925
2.574
2.55888
2.54486
2.5326
2.52267
2.51563
2.50914
2.49794
2.48423
2.46963
2.45509
2.44201
2.43064
2.42278
2.41633
2.40509
2.39175
2.37778
2.36397
2.35052
2.33729
2.32389
2.31012
2.29594
2.2813
2.26709
2.25484
2.24452
2.23502
2.2254
2.21548
2.20506
2.19412
2.18317
2.17282
2.16321
2.1536
2.14328
2.13203
2.12009
2.10871
2.09971
2.0923
2.08507
2.07675
2.0667
2.0524
2.03288
2.01685
2.0059
2.0029
1.91148
1.66297
1.49474
1.31398
1.30133
1.29234
1.26938
1.27875
1.3005
1.33441
1.36103
1.39429
1.43886
1.48521
1.53263
1.59067
1.63435
1.65198
1.64125
1.83261
2.56283
2.78425
2.77693
2.76693
2.75877
2.75062
2.74219
2.73427
2.72842
2.72408
2.71867
2.7114
2.70221
2.69196
2.68159
2.67193
2.66156
2.64828
2.63303
2.61862
2.60707
2.59886
2.59144
2.58146
2.56907
2.55582
2.54275
2.53056
2.51957
2.50958
2.50017
2.48967
2.47828
2.46711
2.45525
2.44316
2.4312
2.42058
2.41265
2.4053
2.39409
2.38121
2.36687
2.35154
2.33777
2.32565
2.31483
2.30376
2.29132
2.27797
2.26342
2.24854
2.23615
2.22631
2.21741
2.20814
2.19869
2.18864
2.17755
2.16576
2.15491
2.14581
2.13708
2.1277
2.11771
2.10703
2.09573
2.08543
2.0772
2.07016
2.06171
2.04959
2.03397
2.01735
2.00386
2.00972
2.02123
1.8224
1.69203
1.55046
1.44276
1.38955
1.34509
1.27812
1.2289
1.23078
1.24991
1.28475
1.33029
1.36847
1.38807
1.41768
1.45753
1.49141
1.51107
1.58685
2.35585
2.70115
2.68614
2.66554
2.66859
2.67613
2.67549
2.66414
2.65069
2.64252
2.64109
2.64356
2.64405
2.63485
2.62065
2.60678
2.59479
2.58579
2.57729
2.56773
2.55805
2.54972
2.54223
2.53197
2.5194
2.5068
2.49497
2.4846
2.47679
2.47139
2.46316
2.45039
2.43664
2.42343
2.41187
2.40182
2.39249
2.38452
2.37851
2.37146
2.362
2.35189
2.34017
2.32569
2.30931
2.29481
2.28335
2.27339
2.26477
2.25489
2.24403
2.23082
2.21507
2.20129
2.19153
2.18349
2.17611
2.16839
2.15983
2.14866
2.13402
2.12039
2.1122
2.10603
2.09999
2.09341
2.08477
2.07305
2.05985
2.0485
2.03924
2.0309
2.0226
2.01417
2.00615
2.03149
2.09973
1.94019
1.81103
1.69552
1.58571
1.51971
1.47673
1.41536
1.33938
1.3007
1.2955
1.2906
1.28972
1.29049
1.29285
1.30016
1.32835
1.36541
1.41115
1.49024
2.01197
2.5231
2.60469
2.56138
2.55204
2.56079
2.56696
2.56395
2.55506
2.54372
2.53788
2.53556
2.5367
2.53533
2.52807
2.51855
2.50718
2.49784
2.48959
2.4819
2.47476
2.46875
2.46279
2.45416
2.44444
2.43322
2.42193
2.41258
2.40513
2.39973
2.39175
2.38133
2.37019
2.35772
2.34587
2.33661
2.32913
2.32319
2.31687
2.30945
2.3014
2.29307
2.28438
2.2745
2.26305
2.25088
2.23908
2.22826
2.21849
2.20927
2.19985
2.18905
2.17536
2.16034
2.14857
2.14046
2.1337
2.12741
2.12097
2.11342
2.10211
2.0864
2.07419
2.0679
2.06322
2.05864
2.05356
2.04652
2.03435
2.01755
2.00516
1.99923
1.99581
1.99877
2.00921
2.06816
2.14859
2.01862
1.90942
1.81001
1.70466
1.61293
1.56368
1.52499
1.47743
1.41066
1.34986
1.32535
1.31541
1.30973
1.30056
1.29345
1.29779
1.31289
1.38707
1.50274
1.69362
2.21691
2.47408
2.49706
2.48099
2.46942
2.47261
2.4753
2.47269
2.46561
2.45617
2.44923
2.44502
2.44385
2.4413
2.4356
2.42769
2.41807
2.41007
2.4031
2.3973
2.39219
2.3854
2.37753
2.36915
2.35955
2.34981
2.34155
2.33449
2.32715
2.31866
2.30982
2.29988
2.28807
2.2769
2.26908
2.26288
2.25702
2.25051
2.24355
2.23583
2.22737
2.21862
2.20989
2.20137
2.19296
2.18414
2.17449
2.16455
2.15513
2.14594
2.13611
2.12467
2.1118
2.09968
2.09008
2.08271
2.07636
2.07035
2.06394
2.05546
2.04298
2.03026
2.02285
2.01789
2.01341
2.00892
2.00322
1.99392
1.97975
1.96683
1.96352
1.96635
1.98395
2.02166
2.09273
2.18606
2.07733
1.97484
1.89257
1.81287
1.71967
1.62887
1.59225
1.56623
1.52584
1.46918
1.39938
1.37493
1.36965
1.35128
1.33758
1.35405
1.40276
1.49122
1.58375
1.60483
1.78619
2.23202
2.41776
2.44177
2.42355
2.41189
2.41441
2.41758
2.41266
2.40478
2.39315
2.38594
2.38121
2.3789
2.37432
2.36752
2.35926
2.35175
2.34553
2.34027
2.33347
2.32548
2.31739
2.30917
2.30063
2.29224
2.28428
2.2761
2.26767
2.25947
2.25125
2.24211
2.23093
2.21982
2.21219
2.20564
2.199
2.19246
2.18573
2.17801
2.16887
2.15946
2.15155
2.14502
2.13853
2.13104
2.12201
2.11186
2.10202
2.09298
2.08399
2.07451
2.06442
2.05355
2.0425
2.03337
2.02678
2.02121
2.01555
2.00865
1.99888
1.98627
1.97625
1.97062
1.96612
1.96161
1.95599
1.94804
1.93657
1.92782
1.93051
1.94891
1.99121
2.04535
2.09267
2.20188
2.1176
2.02818
1.94094
1.87609
1.80902
1.73103
1.65045
1.60679
1.58689
1.555
1.50691
1.4442
1.41149
1.39709
1.40844
1.47312
1.5584
1.60694
1.64583
1.64664
1.65531
1.81513
2.19033
2.37846
2.39195
2.37838
2.37187
2.37668
2.37759
2.3722
2.36112
2.34976
2.34251
2.33724
2.33303
2.32648
2.31945
2.31291
2.30756
2.30168
2.29374
2.28437
2.27535
2.26748
2.25998
2.25251
2.24421
2.23512
2.22574
2.21708
2.20902
2.20049
2.19038
2.17956
2.17093
2.16365
2.15682
2.1502
2.14322
2.13482
2.12397
2.11301
2.10563
2.10005
2.09437
2.08787
2.07996
2.07003
2.05869
2.04821
2.0394
2.03155
2.02388
2.01547
2.00537
1.99429
1.98528
1.97916
1.97392
1.96825
1.96085
1.9503
1.9382
1.92901
1.92313
1.91812
1.91269
1.90719
1.90151
1.90351
1.91736
1.96118
2.01038
2.05896
2.07115
2.21002
2.13878
2.06636
1.99
1.91552
1.85789
1.80137
1.73323
1.6684
1.62284
1.59878
1.56971
1.52745
1.49494
1.49818
1.55246
1.65919
1.69538
1.69063
1.68619
1.67709
1.67565
1.68945
1.81111
2.12815
2.32933
2.34918
2.34567
2.34286
2.3472
2.34456
2.33578
2.32364
2.31462
2.30769
2.30254
2.29588
2.28887
2.28269
2.27766
2.27185
2.26437
2.25521
2.24494
2.23653
2.22911
2.22154
2.2132
2.20442
2.19518
2.1863
2.17805
2.16971
2.1605
2.15029
2.14056
2.1326
2.12568
2.11895
2.11186
2.10334
2.09222
2.08058
2.07238
2.06639
2.06074
2.05475
2.04776
2.03849
2.02594
2.0132
2.00422
1.99767
1.99171
1.98538
1.97753
1.967
1.95517
1.94616
1.94021
1.93492
1.92895
1.9211
1.91011
1.89789
1.88937
1.88308
1.87866
1.87963
1.88492
1.90313
1.94605
2.00138
2.02316
2.03972
2.03739
2.21254
2.14918
2.0876
2.02382
1.95471
1.89439
1.84273
1.79124
1.73524
1.67726
1.63259
1.60936
1.60327
1.61784
1.65208
1.73522
1.78508
1.77842
1.75373
1.73006
1.72101
1.72251
1.72354
1.72887
1.79834
2.05855
2.26124
2.30478
2.31813
2.31991
2.31729
2.30881
2.29715
2.28827
2.282
2.27712
2.27058
2.26278
2.25562
2.24984
2.24457
2.23824
2.2307
2.22079
2.2107
2.20243
2.19432
2.18622
2.1781
2.16968
2.16103
2.15259
2.14445
2.13611
2.12693
2.11709
2.10798
2.10023
2.0931
2.08585
2.07769
2.06806
2.05771
2.04842
2.04093
2.03452
2.02826
2.02134
2.0124
1.99996
1.98642
1.97717
1.97119
1.96599
1.96069
1.95451
1.94605
1.93444
1.92239
1.91404
1.90831
1.90299
1.89648
1.88739
1.87545
1.86444
1.85813
1.85938
1.86979
1.89589
1.94052
2.00145
2.02297
2.02236
2.01755
2.0103
2.21157
2.15604
2.10051
2.04571
1.98676
1.93021
1.87668
1.82622
1.77957
1.73086
1.68845
1.68544
1.7248
1.76223
1.79828
1.84029
1.84279
1.8285
1.80675
1.78369
1.76846
1.7634
1.76093
1.75123
1.7531
1.7879
1.97999
2.18438
2.25776
2.29049
2.29423
2.28505
2.26983
2.25978
2.25455
2.25139
2.24602
2.23864
2.22931
2.22227
2.21675
2.21141
2.20499
2.19665
2.18611
2.17624
2.16791
2.16019
2.15267
2.14496
2.1367
2.12828
2.12044
2.11293
2.10497
2.09598
2.08631
2.07724
2.06919
2.06155
2.05388
2.04601
2.03766
2.02872
2.0199
2.01198
2.00471
1.99727
1.98864
1.97787
1.96592
1.95583
1.94864
1.94305
1.93801
1.93285
1.92656
1.91768
1.90593
1.89445
1.88619
1.87999
1.87392
1.86664
1.85795
1.84844
1.8481
1.85696
1.89127
1.93959
1.99308
2.0263
2.02654
2.01706
2.00277
1.99031
2.20691
2.15902
2.10857
2.05986
2.00845
1.95699
1.90559
1.85465
1.81429
1.78633
1.78874
1.83135
1.89119
1.89147
1.89164
1.89013
1.88118
1.86974
1.85555
1.83635
1.81595
1.80609
1.79656
1.78867
1.77364
1.76514
1.78228
1.9098
2.10308
2.21444
2.26045
2.26263
2.24811
2.23197
2.22566
2.22323
2.22011
2.21416
2.20484
2.19554
2.18946
2.18398
2.1777
2.17002
2.16016
2.15031
2.14216
2.13479
2.12763
2.12017
2.11199
2.1037
2.0963
2.08946
2.08243
2.07441
2.06504
2.05532
2.0465
2.03851
2.03101
2.02382
2.01648
2.00838
1.9996
1.99087
1.98254
1.97431
1.96582
1.95682
1.94722
1.93758
1.92913
1.92237
1.9168
1.91178
1.9066
1.89992
1.89038
1.87905
1.86867
1.86047
1.85309
1.84707
1.84317
1.84431
1.85455
1.89051
1.94596
1.98559
2.01709
2.01978
2.01495
2.0046
1.9914
1.97538
2.19887
2.15797
2.11369
2.06917
2.0245
1.97642
1.92733
1.88392
1.87558
1.89419
1.92437
1.98399
1.99444
1.96904
1.93978
1.92138
1.91114
1.90709
1.89692
1.87957
1.85531
1.84258
1.83113
1.81917
1.80624
1.78942
1.77235
1.77717
1.84906
2.02094
2.16146
2.21925
2.22255
2.20769
2.19917
2.19438
2.19277
2.18781
2.18017
2.17038
2.16281
2.15605
2.14887
2.14084
2.13204
2.12387
2.11657
2.10952
2.10233
2.09459
2.08619
2.07822
2.07127
2.06472
2.05797
2.05031
2.04137
2.03219
2.024
2.01643
2.00881
2.00095
1.99294
1.98493
1.97688
1.9688
1.96081
1.95273
1.94438
1.93577
1.92704
1.91836
1.9103
1.90332
1.89715
1.89123
1.88529
1.87878
1.871
1.86156
1.85238
1.84378
1.83658
1.83504
1.8392
1.85579
1.89521
1.95899
1.99131
2.00186
2.00443
2.00336
1.99749
1.9902
1.98301
1.9676
2.18877
2.15356
2.11421
2.07207
2.03081
1.99246
1.95865
1.95958
2.00089
2.02635
2.04396
2.06176
2.0493
2.01702
1.98132
1.95485
1.94342
1.94019
1.93133
1.91536
1.89232
1.86995
1.86038
1.84756
1.83516
1.81961
1.79869
1.77303
1.77341
1.80651
1.93689
2.09062
2.16688
2.17447
2.173
2.16886
2.16638
2.15981
2.15271
2.14401
2.13643
2.12853
2.11968
2.1106
2.10328
2.09708
2.09091
2.08426
2.07667
2.06798
2.0592
2.05193
2.04562
2.03931
2.03233
2.02393
2.01443
2.00609
1.99961
1.99354
1.9869
1.9789
1.96914
1.95881
1.9503
1.94345
1.93716
1.93105
1.92443
1.91653
1.90714
1.89748
1.88947
1.88322
1.87762
1.87177
1.8652
1.85753
1.84877
1.83942
1.83259
1.82642
1.82815
1.83753
1.86431
1.90734
1.96469
2.00275
2.00199
1.99401
1.98627
1.98196
1.97966
1.97588
1.97132
1.9596
2.17782
2.14622
2.1113
2.07152
2.03959
2.0284
2.04456
2.0974
2.13293
2.11377
2.09739
2.09145
2.07669
2.05065
2.01993
1.9915
1.9764
1.96993
1.96008
1.94358
1.92243
1.89579
1.88083
1.87034
1.85661
1.84257
1.82447
1.80038
1.77255
1.76959
1.77968
1.85912
2.00525
2.09825
2.12407
2.1414
2.14066
2.13199
2.12232
2.11411
2.10791
2.10025
2.09008
2.08011
2.07432
2.06934
2.0642
2.05821
2.05025
2.03974
2.02993
2.02356
2.01832
2.01288
2.00629
1.99726
1.98566
1.97653
1.97157
1.96721
1.96242
1.95644
1.94746
1.93388
1.92065
1.91406
1.9103
1.90667
1.9026
1.8972
1.8889
1.87707
1.86592
1.85956
1.85526
1.85096
1.84574
1.83846
1.82845
1.81675
1.81246
1.81545
1.82962
1.86741
1.91955
1.96315
2.00018
2.00199
1.99582
1.98167
1.96944
1.96327
1.95916
1.95733
1.95454
1.9444
2.16675
2.13655
2.10515
2.08114
2.08694
2.13005
2.17035
2.20581
2.19616
2.15853
2.12495
2.10864
2.09877
2.08023
2.05261
2.02601
2.00646
1.99479
1.98466
1.96633
1.94524
1.91979
1.89957
1.8881
1.87396
1.85905
1.84218
1.82059
1.7943
1.77
1.75752
1.76025
1.79941
1.90995
2.01806
2.0776
2.10044
2.09893
2.09197
2.08504
2.07828
2.07079
2.0602
2.04904
2.04353
2.03962
2.03566
2.03041
2.02267
2.01062
1.99854
1.99276
1.98851
1.98403
1.97869
1.9713
1.95982
1.94706
1.94091
1.93764
1.93423
1.93017
1.92403
1.91245
1.89595
1.88555
1.88229
1.88011
1.8777
1.87464
1.86934
1.85922
1.84467
1.834
1.82984
1.82714
1.82345
1.81835
1.81072
1.80407
1.80602
1.82372
1.86503
1.92605
1.95883
1.983
1.98982
1.98616
1.97812
1.96772
1.95648
1.94682
1.94018
1.93506
1.93237
1.92324
2.14948
2.12516
2.11235
2.1369
2.20524
2.24186
2.24739
2.24176
2.21629
2.18069
2.14643
2.12803
2.12015
2.10469
2.07756
2.05224
2.0311
2.0142
2.00271
1.9845
1.96075
1.93784
1.91561
1.90178
1.88762
1.87005
1.8526
1.83124
1.80606
1.78263
1.76189
1.74965
1.74093
1.75304
1.82062
1.92817
2.01493
2.04143
2.04987
2.05523
2.05025
2.0426
2.03135
2.01817
2.01139
2.00791
2.00502
2.00041
1.99356
1.98235
1.96753
1.95975
1.95639
1.95305
1.94872
1.94338
1.93552
1.92293
1.91003
1.90453
1.90214
1.89951
1.89538
1.88851
1.87808
1.86429
1.85371
1.85017
1.84871
1.8473
1.84474
1.83921
1.82881
1.81435
1.80287
1.79868
1.79656
1.79594
1.79924
1.8073
1.8327
1.87566
1.93419
1.96546
1.96843
1.96944
1.96656
1.96109
1.95528
1.94986
1.94345
1.93392
1.92252
1.91416
1.90938
1.90084
2.133
2.13907
2.18655
2.26464
2.30851
2.28562
2.26445
2.24752
2.22555
2.19797
2.1669
2.14704
2.13607
2.12155
2.09655
2.06858
2.04861
2.02936
2.01424
1.99802
1.97299
1.94922
1.92759
1.91032
1.89591
1.87804
1.85804
1.83741
1.81335
1.79017
1.77134
1.75301
1.73428
1.72571
1.7236
1.75089
1.83407
1.92776
1.98148
2.00351
2.01757
2.01532
2.00576
1.99097
1.98037
1.97633
1.97371
1.97056
1.96488
1.95602
1.94171
1.92836
1.92276
1.91982
1.91739
1.91353
1.90867
1.90112
1.88822
1.87377
1.86558
1.86283
1.86139
1.85902
1.85472
1.8472
1.83492
1.823
1.8182
1.81689
1.81582
1.81279
1.80657
1.79726
1.7839
1.77377
1.77405
1.78001
1.79789
1.83833
1.88768
1.93635
1.96796
1.96665
1.95849
1.94759
1.93985
1.93489
1.93201
1.92895
1.92396
1.91686
1.90628
1.89451
1.88821
1.87942
2.14304
2.2225
2.30314
2.34922
2.32988
2.2872
2.2616
2.24649
2.23236
2.21008
2.17997
2.15833
2.14561
2.13125
2.10923
2.07909
2.05756
2.03998
2.02207
2.00587
1.98408
1.95718
1.93508
1.91476
1.89808
1.88089
1.86127
1.8402
1.81816
1.79581
1.77539
1.75859
1.74067
1.72075
1.70818
1.69824
1.70401
1.75177
1.84151
1.91709
1.96155
1.97937
1.97961
1.96985
1.95772
1.95026
1.9464
1.94331
1.93897
1.93263
1.92203
1.90908
1.8972
1.88897
1.88541
1.88465
1.88258
1.87796
1.86833
1.85444
1.83966
1.83088
1.82876
1.82896
1.8284
1.82463
1.81691
1.80626
1.79444
1.78648
1.78333
1.78237
1.78078
1.7763
1.76916
1.76328
1.76822
1.79011
1.83583
1.8899
1.92467
1.95055
1.95345
1.94982
1.94199
1.92962
1.91836
1.91252
1.90869
1.90602
1.9018
1.89589
1.88819
1.87728
1.86896
1.85996
2.25974
2.32902
2.35474
2.34376
2.3164
2.28131
2.25857
2.24707
2.23588
2.21494
2.18498
2.16192
2.14923
2.13533
2.11468
2.08642
2.06089
2.0446
2.02731
2.00904
1.98918
1.96311
1.93819
1.91768
1.8985
1.88081
1.86273
1.84293
1.82136
1.79981
1.7802
1.76235
1.74617
1.72905
1.70946
1.69253
1.68123
1.67798
1.69944
1.76828
1.85409
1.92016
1.94717
1.95225
1.94909
1.93666
1.92121
1.91261
1.91022
1.90959
1.90806
1.90156
1.88955
1.87513
1.86002
1.85175
1.84943
1.84812
1.84624
1.84035
1.82832
1.81315
1.80089
1.79597
1.79439
1.79425
1.79421
1.78904
1.77839
1.76505
1.75426
1.74991
1.74831
1.75018
1.75613
1.77257
1.80503
1.8534
1.902
1.91618
1.92347
1.93055
1.93101
1.92826
1.92351
1.91528
1.90278
1.89359
1.88886
1.88539
1.88213
1.87782
1.8726
1.86478
1.85495
1.84397
2.36591
2.35976
2.34501
2.32576
2.3005
2.27336
2.25572
2.24656
2.2354
2.21496
2.18673
2.16371
2.15087
2.13731
2.11641
2.09109
2.06426
2.04559
2.02979
2.01062
1.99024
1.96662
1.9405
1.9195
1.90086
1.88273
1.86461
1.84606
1.826
1.80503
1.78594
1.76922
1.75396
1.73915
1.72312
1.70474
1.68743
1.67219
1.66909
1.67838
1.72215
1.80395
1.8781
1.92915
1.94006
1.93652
1.92353
1.90571
1.89776
1.89563
1.89447
1.89289
1.88704
1.87533
1.85815
1.84189
1.83289
1.82843
1.82486
1.82177
1.81754
1.80639
1.79006
1.77915
1.77432
1.77158
1.76866
1.76613
1.76152
1.75005
1.73448
1.73063
1.73152
1.7399
1.76996
1.81788
1.87013
1.91428
1.92353
1.91814
1.91591
1.91301
1.91314
1.91122
1.90688
1.90123
1.89186
1.88159
1.87598
1.87239
1.86964
1.86626
1.86219
1.85655
1.84857
1.83651
2.41627
2.37734
2.35039
2.32785
2.30223
2.27506
2.25699
2.2466
2.23335
2.21204
2.18544
2.16365
2.15055
2.13789
2.11769
2.09362
2.06933
2.0469
2.03021
2.0127
1.99161
1.96933
1.94556
1.92355
1.90541
1.8885
1.87148
1.85375
1.83519
1.81607
1.79768
1.782
1.7691
1.75694
1.74485
1.73061
1.71427
1.69694
1.68652
1.67822
1.68129
1.70572
1.76675
1.84492
1.90502
1.93721
1.93726
1.92536
1.91135
1.90018
1.89268
1.88649
1.8807
1.87422
1.86468
1.8496
1.83353
1.82301
1.81708
1.81185
1.80691
1.80174
1.7926
1.7777
1.76458
1.75763
1.75229
1.74661
1.74157
1.73592
1.72843
1.72837
1.73971
1.77666
1.83307
1.87441
1.91115
1.92336
1.92207
1.91617
1.90812
1.90391
1.90136
1.90039
1.89663
1.89229
1.88714
1.87944
1.87337
1.87036
1.86699
1.86258
1.85746
1.85225
1.84743
1.83728
2.50601
2.43846
2.3915
2.35648
2.32255
2.29417
2.27361
2.26014
2.24457
2.22286
2.19539
2.17159
2.15629
2.14254
2.12361
2.09855
2.07539
2.05363
2.03373
2.01675
1.99801
1.97703
1.95551
1.93513
1.91743
1.90171
1.88647
1.87094
1.85492
1.83862
1.82259
1.80771
1.79444
1.78248
1.77119
1.76011
1.7493
1.73673
1.72432
1.71083
1.70377
1.69684
1.7028
1.73807
1.8093
1.88218
1.94065
1.9489
1.94127
1.92264
1.90379
1.89302
1.88651
1.88136
1.87497
1.86465
1.84799
1.82997
1.81962
1.81318
1.80662
1.79886
1.79074
1.78077
1.76706
1.75317
1.7437
1.73738
1.73576
1.73507
1.7402
1.76097
1.80291
1.85954
1.8888
1.9077
1.92276
1.92613
1.92385
1.9176
1.90773
1.90119
1.89876
1.89746
1.8982
1.89622
1.89282
1.88684
1.87814
1.86956
1.86468
1.86211
1.86007
1.85697
1.85327
1.8444
2.57317
2.51595
2.46388
2.42184
2.38713
2.35256
2.32223
2.3002
2.27803
2.2541
2.22858
2.20434
2.18725
2.1724
2.15419
2.13025
2.10703
2.0883
2.06978
2.05308
2.03661
2.018
1.99774
1.97799
1.96093
1.94625
1.93244
1.91852
1.90401
1.88877
1.8731
1.85788
1.84393
1.83149
1.81997
1.80929
1.79877
1.78758
1.77436
1.76026
1.74225
1.72409
1.71224
1.71461
1.73311
1.78354
1.8597
1.92696
1.95948
1.95419
1.9352
1.91454
1.90419
1.8975
1.89142
1.88172
1.86859
1.84954
1.83207
1.82249
1.81435
1.80696
1.79842
1.78846
1.77458
1.7575
1.74663
1.74361
1.74529
1.75973
1.79993
1.84801
1.89713
1.92009
1.92355
1.92909
1.93519
1.93519
1.93174
1.92617
1.91787
1.91029
1.90707
1.90513
1.90427
1.9033
1.90086
1.89669
1.88915
1.88042
1.87455
1.87056
1.8672
1.86355
1.86021
1.8526
2.65043
2.61247
2.56962
2.5265
2.48275
2.43995
2.40259
2.37222
2.34626
2.3193
2.28867
2.2616
2.24114
2.22334
2.2032
2.17864
2.15348
2.13503
2.11682
2.09909
2.08246
2.06437
2.04387
2.02309
2.00479
1.98913
1.97474
1.96049
1.94553
1.92941
1.91242
1.89566
1.88026
1.86668
1.85405
1.84172
1.8287
1.81522
1.80099
1.7865
1.77273
1.75931
1.74416
1.73171
1.72338
1.73062
1.76388
1.83364
1.90962
1.96541
1.96405
1.94516
1.92769
1.91688
1.9095
1.90126
1.88959
1.87381
1.85339
1.83908
1.82975
1.82262
1.81353
1.80136
1.78836
1.77195
1.76274
1.76468
1.78833
1.84202
1.89586
1.93333
1.95732
1.95966
1.95579
1.95316
1.95063
1.94835
1.94575
1.94299
1.93961
1.93373
1.92781
1.92463
1.92213
1.91945
1.91625
1.9123
1.90749
1.902
1.89668
1.892
1.88791
1.88363
1.87916
1.8708
2.67634
2.65825
2.63071
2.59853
2.56159
2.52493
2.4919
2.46169
2.43056
2.39627
2.36314
2.33543
2.31299
2.29243
2.26974
2.24377
2.217
2.197
2.17879
2.15998
2.14193
2.12295
2.10181
2.08053
2.06171
2.04524
2.0296
2.01362
1.99668
1.97884
1.96091
1.94406
1.92872
1.91448
1.90015
1.88491
1.86865
1.8526
1.83743
1.82255
1.80783
1.7932
1.77731
1.76048
1.74524
1.73051
1.73091
1.74771
1.80406
1.88909
1.9539
1.95958
1.95184
1.93668
1.92683
1.91887
1.90874
1.89569
1.87815
1.8597
1.84788
1.83867
1.82953
1.81953
1.81042
1.79809
1.80331
1.83681
1.89774
1.94866
1.97238
1.99398
2.0019
1.99844
1.98852
1.97796
1.97384
1.97211
1.97166
1.97089
1.96889
1.96582
1.96045
1.95483
1.95083
1.9475
1.94411
1.94057
1.93693
1.93299
1.92845
1.92346
1.91872
1.91381
1.90904
1.90122
2.68092
2.66697
2.65083
2.63106
2.60759
2.58239
2.55666
2.52963
2.49969
2.4684
2.43911
2.41332
2.39048
2.36714
2.3406
2.31204
2.28496
2.26325
2.24284
2.22159
2.20057
2.17915
2.15669
2.13491
2.11529
2.09704
2.07893
2.06045
2.04152
2.0223
2.00351
1.98576
1.96893
1.95253
1.93635
1.91983
1.90254
1.88464
1.86681
1.84953
1.83372
1.81896
1.80438
1.7884
1.77138
1.75104
1.73325
1.72544
1.73448
1.77852
1.85837
1.93173
1.96011
1.95239
1.9414
1.93243
1.92351
1.91331
1.90143
1.8838
1.86485
1.85321
1.84233
1.84117
1.84146
1.85666
1.90932
1.97234
2.01126
2.02573
2.03394
2.03816
2.03526
2.02896
2.0214
2.013
2.0088
2.00693
2.00601
2.00507
2.00277
2.00028
1.99665
1.99099
1.9859
1.98238
1.97944
1.97658
1.97353
1.96992
1.96525
1.95939
1.95348
1.94805
1.94395
1.93743
2.67871
2.665
2.65295
2.63724
2.62008
2.60211
2.58304
2.56176
2.53768
2.51226
2.4875
2.46425
2.44101
2.41552
2.38843
2.36122
2.33662
2.31555
2.29515
2.27302
2.24962
2.2246
2.19998
2.17787
2.15784
2.13882
2.11998
2.10044
2.07926
2.05643
2.03414
2.01442
1.99709
1.98093
1.96486
1.94772
1.92814
1.90611
1.88475
1.86675
1.85189
1.83822
1.82485
1.8095
1.79056
1.7676
1.74591
1.73037
1.72352
1.7284
1.75537
1.82381
1.90381
1.94574
1.94242
1.93608
1.93252
1.92497
1.91505
1.90069
1.8823
1.86852
1.86292
1.86513
1.89957
1.97465
2.03891
2.07522
2.07956
2.07333
2.06828
2.06667
2.06547
2.06222
2.05785
2.05154
2.04599
2.04323
2.04127
2.03982
2.03765
2.03536
2.03221
2.02694
2.02142
2.0178
2.01517
2.01265
2.0098
2.00622
2.00124
1.99451
1.98799
1.98304
1.97969
1.97357
2.67668
2.66006
2.64966
2.63636
2.62249
2.60713
2.58997
2.5711
2.55104
2.53028
2.50959
2.48859
2.46575
2.44147
2.41652
2.39204
2.36973
2.34945
2.32773
2.3041
2.27823
2.25104
2.22683
2.20585
2.18622
2.16693
2.14723
2.1258
2.10167
2.07637
2.05316
2.03326
2.01599
1.99977
1.98315
1.96473
1.94335
1.91969
1.89729
1.87889
1.86406
1.8504
1.83631
1.82023
1.80096
1.77817
1.7575
1.74112
1.72824
1.72049
1.71708
1.73127
1.78398
1.87256
1.92067
1.93272
1.92915
1.92456
1.9159
1.90459
1.89278
1.87975
1.88688
1.93458
2.02208
2.08102
2.11455
2.12349
2.1173
2.10407
2.09591
2.09282
2.09128
2.08962
2.08656
2.08277
2.07752
2.07352
2.07137
2.0696
2.06777
2.06586
2.06307
2.05796
2.0515
2.04696
2.04391
2.04118
2.03833
2.03479
2.02939
2.02176
2.01574
2.01206
2.0093
2.00308
2.67421
2.65602
2.6461
2.63342
2.61994
2.60492
2.58854
2.57109
2.55312
2.53487
2.51614
2.49571
2.47353
2.45074
2.42778
2.40553
2.38543
2.36555
2.34292
2.31838
2.29171
2.26608
2.24315
2.22202
2.2018
2.18174
2.16085
2.13786
2.11288
2.08815
2.06545
2.04483
2.02615
2.0089
1.99164
1.97273
1.95136
1.92854
1.90675
1.88726
1.87049
1.85594
1.84165
1.82546
1.80684
1.78652
1.76656
1.74913
1.7333
1.72002
1.70996
1.70246
1.70962
1.75051
1.83171
1.89847
1.91671
1.91894
1.9123
1.90649
1.90009
1.91648
1.97177
2.06089
2.11239
2.13
2.13921
2.1392
2.13342
2.1237
2.1157
2.11217
2.11038
2.10954
2.10706
2.104
2.09943
2.09441
2.09204
2.09048
2.08881
2.08655
2.08294
2.07706
2.07067
2.06675
2.06395
2.061
2.05765
2.0534
2.04713
2.03997
2.03571
2.0325
2.0293
2.02136
2.6739
2.65478
2.64449
2.63159
2.61801
2.60317
2.58733
2.57063
2.55326
2.53526
2.51608
2.49557
2.47447
2.45322
2.43172
2.41089
2.39063
2.36928
2.34616
2.32172
2.29694
2.27319
2.25108
2.22973
2.20862
2.18724
2.16443
2.14032
2.11665
2.09437
2.07338
2.05289
2.0327
2.01306
1.99348
1.97282
1.95223
1.93284
1.91432
1.89579
1.87698
1.85839
1.84056
1.82282
1.80562
1.79015
1.77483
1.75873
1.74058
1.72213
1.70628
1.6921
1.685
1.69001
1.72272
1.79479
1.86258
1.90143
1.90369
1.9122
1.94534
2.0129
2.08936
2.13929
2.15042
2.14578
2.14258
2.14166
2.13911
2.13417
2.1271
2.12311
2.12128
2.11988
2.11759
2.11482
2.1117
2.10817
2.10482
2.1021
2.09917
2.09529
2.09083
2.08679
2.0835
2.08025
2.07656
2.07235
2.06765
2.06249
2.05708
2.05201
2.04755
2.04312
2.03827
2.02809
2.67492
2.65531
2.64448
2.63124
2.61748
2.6027
2.58707
2.57059
2.55328
2.53498
2.51546
2.49526
2.47491
2.45434
2.4333
2.41273
2.39183
2.36871
2.34451
2.32109
2.29872
2.27713
2.25593
2.23445
2.21174
2.18713
2.16219
2.13868
2.11719
2.09747
2.07863
2.05931
2.03851
2.01533
1.9915
1.96995
1.95122
1.93471
1.91892
1.90201
1.88243
1.86042
1.83864
1.82052
1.80547
1.79236
1.77938
1.76447
1.74549
1.72377
1.70428
1.6895
1.67796
1.67258
1.67327
1.69669
1.76064
1.83849
1.89096
1.96114
2.03732
2.10306
2.14674
2.15771
2.15139
2.14355
2.14131
2.14146
2.14128
2.13819
2.13382
2.1292
2.1262
2.12435
2.12261
2.12059
2.11858
2.11585
2.11098
2.10551
2.1015
2.09831
2.09555
2.09315
2.09061
2.08702
2.0816
2.07538
2.07022
2.06616
2.06236
2.0582
2.05276
2.0459
2.0397
2.03139
2.67556
2.65625
2.64519
2.63176
2.61794
2.60319
2.58757
2.57102
2.55346
2.53487
2.51556
2.496
2.47637
2.4561
2.43553
2.41483
2.39179
2.36779
2.34398
2.32169
2.30112
2.28074
2.2596
2.23742
2.21265
2.18532
2.15872
2.13624
2.11749
2.1004
2.08347
2.06494
2.04221
2.01447
1.98693
1.96558
1.94977
1.9363
1.92302
1.90808
1.88802
1.86095
1.83419
1.81636
1.804
1.79348
1.78287
1.77014
1.75141
1.72494
1.70086
1.68658
1.67522
1.66498
1.65937
1.65914
1.68003
1.75204
1.88775
2.01487
2.11254
2.18655
2.20014
2.18763
2.15905
2.14112
2.1389
2.13984
2.14082
2.13918
2.13532
2.13107
2.1279
2.12605
2.12448
2.12265
2.12053
2.11747
2.11194
2.10566
2.10214
2.09988
2.09788
2.09573
2.09286
2.08854
2.08196
2.07533
2.07095
2.06743
2.06379
2.05943
2.05334
2.04511
2.03933
2.03299
)
;

boundaryField
{
    inlet
    {
        type            fixedValue;
        value           uniform 1;
    }
    outlet
    {
        type            inletOutlet;
        inletValue      uniform 1;
        value           nonuniform List<scalar> 
32
(
2.00344
2.00985
2.03033
2.0669
2.09209
2.09297
2.07184
2.03881
2.01183
1.99087
1.97517
1.9666
1.95904
1.94431
1.9235
1.90122
1.87977
1.86024
1.84401
1.83617
1.83681
1.84393
1.85256
1.87061
1.90118
1.93765
1.97387
2.00329
2.02122
2.02784
2.03159
2.0335
)
;
    }
    bottom
    {
        type            symmetryPlane;
    }
    top
    {
        type            symmetryPlane;
    }
    obstacle
    {
        type            zeroGradient;
    }
    defaultFaces
    {
        type            empty;
    }
}


// ************************************************************************* //
