/*--------------------------------*- C++ -*----------------------------------*\
  =========                 |
  \\      /  F ield         | OpenFOAM: The Open Source CFD Toolbox
   \\    /   O peration     | Website:  https://openfoam.org
    \\  /    A nd           | Version:  7
     \\/     M anipulation  |
\*---------------------------------------------------------------------------*/
FoamFile
{
    version     2.0;
    format      ascii;
    class       volVectorField;
    location    "6.5";
    object      U;
}
// * * * * * * * * * * * * * * * * * * * * * * * * * * * * * * * * * * * * * //

dimensions      [0 1 -1 0 0 0 0];

internalField   nonuniform List<vector> 
4032
(
(3 -3.86934e-18 0)
(3 -3.91651e-17 0)
(3 -9.33474e-17 0)
(3 -1.1289e-16 0)
(3 4.81169e-16 0)
(3 3.5194e-16 0)
(3 4.74139e-16 0)
(3 2.34966e-16 0)
(3 -9.95612e-17 0)
(3 -3.17821e-16 0)
(3 9.57235e-17 0)
(2.89914 0.00321385 0)
(0.987798 0.0160344 0)
(0.709677 0.0194105 0)
(0.657811 0.0242167 0)
(0.597884 0.0256505 0)
(0.538902 0.0268284 0)
(0.478139 0.0281292 0)
(0.415625 0.0296002 0)
(0.350712 0.0313736 0)
(0.282887 0.0333646 0)
(0.21055 0.0364126 0)
(0.13195 0.0390696 0)
(0.0494149 0.0445375 0)
(3 2.12141e-17 0)
(3 -4.56638e-16 0)
(3 -3.99931e-16 0)
(3 -2.02184e-16 0)
(3 2.12616e-16 0)
(3 1.81659e-16 0)
(3 1.88644e-16 0)
(3 -3.42491e-16 0)
(3 -4.60922e-16 0)
(3 -2.53591e-16 0)
(3 4.86925e-16 0)
(2.90905 0.020271 0)
(0.993587 0.0742449 0)
(0.695366 0.0667428 0)
(0.641218 0.0708278 0)
(0.582493 0.0753532 0)
(0.52382 0.0797447 0)
(0.462838 0.084343 0)
(0.399809 0.0890345 0)
(0.334633 0.0945077 0)
(0.267359 0.100461 0)
(0.197361 0.110147 0)
(0.122197 0.118829 0)
(0.0459641 0.134573 0)
(3 1.03872e-16 0)
(3 -2.24426e-16 0)
(3 -3.21667e-16 0)
(3 5.04899e-17 0)
(3 -3.32052e-17 0)
(3 -5.43204e-17 0)
(3 -2.90266e-16 0)
(3 -6.49738e-16 0)
(3 -6.23379e-16 0)
(3 -3.93015e-16 0)
(3 -1.44966e-16 0)
(2.9532 0.0412523 0)
(1.03105 0.137921 0)
(0.710755 0.11602 0)
(0.656299 0.122455 0)
(0.595582 0.129846 0)
(0.534787 0.137367 0)
(0.471646 0.14535 0)
(0.40604 0.153239 0)
(0.337767 0.161885 0)
(0.266894 0.170006 0)
(0.194381 0.1835 0)
(0.117687 0.19509 0)
(0.0437995 0.217452 0)
(3 1.39602e-16 0)
(3 4.27891e-16 0)
(3 5.19217e-17 0)
(3 -1.64481e-16 0)
(3 -3.50512e-17 0)
(3 1.32798e-17 0)
(3 3.36586e-18 0)
(3 -5.06843e-17 0)
(3 -5.62338e-16 0)
(3 -6.30927e-16 0)
(3 -5.48469e-16 0)
(3.00863 0.00652498 0)
(1.10631 0.182407 0)
(0.743906 0.152711 0)
(0.692464 0.166543 0)
(0.63295 0.178471 0)
(0.571894 0.189986 0)
(0.508092 0.202711 0)
(0.440514 0.215963 0)
(0.368341 0.230991 0)
(0.29091 0.244246 0)
(0.211212 0.262774 0)
(0.126856 0.276984 0)
(0.0458965 0.302421 0)
(3 8.73798e-17 0)
(3 3.8336e-16 0)
(3 2.29494e-16 0)
(3 -1.74922e-16 0)
(3 -2.77232e-16 0)
(3 -1.8354e-16 0)
(3 -7.23888e-17 0)
(3 2.33395e-16 0)
(3 5.8372e-16 0)
(3 4.582e-16 0)
(3 7.41965e-17 0)
(3.00063 3.19629e-05 0)
(1.21423 0.224463 0)
(0.750362 0.197172 0)
(0.696018 0.217893 0)
(0.639837 0.234337 0)
(0.581347 0.249267 0)
(0.520966 0.266727 0)
(0.457108 0.285566 0)
(0.389272 0.307264 0)
(0.314655 0.325369 0)
(0.235618 0.34853 0)
(0.145543 0.367737 0)
(0.0549526 0.399323 0)
(3 -8.56135e-17 0)
(3 -1.67145e-16 0)
(3 -8.9653e-17 0)
(3 1.26249e-16 0)
(3 1.08535e-16 0)
(3 1.04835e-16 0)
(3 -6.11841e-17 0)
(3 -1.36307e-16 0)
(3 3.49798e-16 0)
(3 1.75191e-16 0)
(3 3.36629e-17 0)
(3 -1.27897e-07 0)
(1.39324 0.274651 0)
(0.765581 0.245309 0)
(0.697305 0.262035 0)
(0.648328 0.28126 0)
(0.598085 0.298884 0)
(0.547567 0.320235 0)
(0.492183 0.344479 0)
(0.43044 0.374956 0)
(0.355199 0.405317 0)
(0.268321 0.443082 0)
(0.166175 0.478291 0)
(0.0561487 0.517187 0)
(3 -1.50955e-16 0)
(3 -5.04145e-16 0)
(3 -5.94924e-16 0)
(3 -4.57692e-16 0)
(3 -3.39943e-16 0)
(3 -3.95608e-16 0)
(3 -5.92166e-16 0)
(3 -8.31006e-16 0)
(3 -1.25914e-15 0)
(3 -1.14025e-15 0)
(3 -6.28887e-16 0)
(3 -1.29323e-07 0)
(1.66664 0.325892 0)
(0.795823 0.309089 0)
(0.69682 0.308654 0)
(0.646104 0.325327 0)
(0.598087 0.343632 0)
(0.554692 0.369825 0)
(0.508354 0.402254 0)
(0.459072 0.444862 0)
(0.397782 0.492011 0)
(0.326546 0.543739 0)
(0.233385 0.594629 0)
(0.101383 0.660075 0)
(3 1.72974e-16 0)
(3 5.67068e-16 0)
(3 5.54715e-16 0)
(3 1.75007e-16 0)
(3 2.44274e-16 0)
(3 2.21153e-16 0)
(3 3.23409e-16 0)
(3 2.06579e-16 0)
(3 -9.70163e-16 0)
(3 -8.00957e-16 0)
(3 -6.41808e-16 0)
(3 -2.70047e-08 0)
(2.06899 0.3677 0)
(0.851817 0.39424 0)
(0.716755 0.370079 0)
(0.667144 0.37909 0)
(0.62026 0.392386 0)
(0.579567 0.4167 0)
(0.540542 0.452203 0)
(0.501998 0.501138 0)
(0.457759 0.560539 0)
(0.395691 0.641653 0)
(0.274947 0.757401 0)
(0.151169 0.923044 0)
(3 1.44489e-17 0)
(3 2.04994e-16 0)
(3 6.95288e-16 0)
(3 9.63144e-16 0)
(3 1.02431e-15 0)
(3 7.39863e-16 0)
(3 7.12911e-16 0)
(3 5.98054e-16 0)
(3 2.16963e-16 0)
(3 -1.45598e-16 0)
(3 -2.1735e-16 0)
(3 -2.79045e-09 0)
(2.65269 0.304314 0)
(0.983465 0.477896 0)
(0.803163 0.406318 0)
(0.751475 0.414849 0)
(0.693986 0.433367 0)
(0.642641 0.459509 0)
(0.599881 0.496719 0)
(0.563653 0.550035 0)
(0.529906 0.62687 0)
(0.497054 0.751071 0)
(0.464748 0.922949 0)
(0.576039 1.19828 0)
(3 -1.33119e-16 0)
(3 -5.50214e-16 0)
(3 -4.98047e-16 0)
(3 2.40643e-16 0)
(3 6.978e-17 0)
(3 -1.33099e-16 0)
(3 8.48303e-17 0)
(3 5.97822e-16 0)
(3 9.69591e-16 0)
(3 4.36085e-16 0)
(3 2.66851e-16 0)
(3 -1.11576e-10 0)
(3.07695 0.0432479 0)
(1.21813 0.469527 0)
(0.882174 0.447515 0)
(0.838654 0.473835 0)
(0.78521 0.48974 0)
(0.730961 0.5112 0)
(0.682674 0.544799 0)
(0.643886 0.597027 0)
(0.624501 0.681659 0)
(0.623408 0.816712 0)
(0.685792 0.966079 0)
(0.970199 1.13756 0)
(3 -2.71515e-16 0)
(3 -3.03085e-16 0)
(3 -6.25746e-16 0)
(3 -9.88617e-16 0)
(3 -4.15752e-16 0)
(3 1.10838e-16 0)
(3 2.39798e-16 0)
(3 3.25469e-16 0)
(3 3.81096e-16 0)
(3 4.17574e-16 0)
(3 6.86892e-16 0)
(3 -2.2997e-12 0)
(3.00877 8.50205e-05 0)
(1.43442 0.46213 0)
(0.884364 0.512209 0)
(0.836678 0.531424 0)
(0.800953 0.550917 0)
(0.772548 0.575545 0)
(0.745064 0.607688 0)
(0.720561 0.651757 0)
(0.723441 0.725657 0)
(0.751097 0.840269 0)
(0.872302 0.963837 0)
(1.18392 1.06673 0)
(3 -1.29437e-16 0)
(3 -8.25134e-17 0)
(3 -2.07194e-16 0)
(3 -3.22805e-16 0)
(3 -4.21207e-16 0)
(3 -2.75103e-16 0)
(3 -1.44995e-16 0)
(3 -3.79564e-16 0)
(3 -4.49789e-16 0)
(3 -2.90138e-16 0)
(3 7.23708e-17 0)
(3 -1.94457e-14 0)
(3.00006 -2.56616e-06 0)
(1.93989 0.494281 0)
(0.928848 0.576542 0)
(0.853336 0.560352 0)
(0.83393 0.582035 0)
(0.819539 0.607605 0)
(0.809529 0.642256 0)
(0.801909 0.682724 0)
(0.817652 0.746106 0)
(0.866999 0.83749 0)
(1.01 0.940365 0)
(1.27654 1.00679 0)
(3 3.47361e-16 0)
(3 3.0225e-17 0)
(3 4.32667e-16 0)
(3 4.53801e-16 0)
(3 1.68187e-16 0)
(3 2.04969e-16 0)
(3 -1.58132e-16 0)
(3 -5.39965e-16 0)
(3 -6.21731e-16 0)
(3 -6.07245e-16 0)
(3 5.00304e-17 0)
(3 4.03502e-16 0)
(3.00001 -3.25634e-06 0)
(2.74384 0.320817 0)
(1.09547 0.635137 0)
(0.920147 0.58115 0)
(0.891043 0.60191 0)
(0.873491 0.630763 0)
(0.869886 0.668956 0)
(0.876397 0.711027 0)
(0.901514 0.765585 0)
(0.9665 0.834708 0)
(1.10565 0.907053 0)
(1.32006 0.947311 0)
(3 -1.63012e-16 0)
(3 -5.04584e-16 0)
(3 -2.86638e-16 0)
(3 -3.70865e-16 0)
(3 6.80073e-17 0)
(3 7.77994e-16 0)
(3 5.7371e-16 0)
(3 7.76999e-16 0)
(3 1.07949e-15 0)
(3 1.48908e-15 0)
(3 1.41293e-15 0)
(3 1.19041e-15 0)
(3 -6.872e-07 0)
(3.07478 0.0264262 0)
(1.43506 0.632156 0)
(1.00201 0.652367 0)
(0.950645 0.652093 0)
(0.924857 0.666565 0)
(0.923098 0.694037 0)
(0.939396 0.730263 0)
(0.974451 0.773657 0)
(1.04792 0.827552 0)
(1.17502 0.879125 0)
(1.34854 0.90634 0)
(3 -7.88784e-17 0)
(3 -2.79851e-16 0)
(3 -5.6794e-16 0)
(3 -4.22279e-16 0)
(3 1.18783e-16 0)
(3 -3.50352e-17 0)
(3 1.07653e-15 0)
(3 1.60989e-15 0)
(3 2.02688e-15 0)
(3 2.25936e-15 0)
(3 2.10788e-15 0)
(3 8.93117e-16 0)
(3 -6.97634e-08 0)
(3.0042 7.52941e-05 0)
(1.9869 0.600335 0)
(1.06337 0.724366 0)
(1.01101 0.702175 0)
(0.994853 0.699302 0)
(0.991238 0.715392 0)
(1.00608 0.742017 0)
(1.04431 0.77784 0)
(1.11507 0.816475 0)
(1.22308 0.849721 0)
(1.36042 0.866047 0)
(3 2.55049e-16 0)
(3 8.22755e-16 0)
(3 6.30977e-16 0)
(3 3.95255e-16 0)
(3 4.26401e-16 0)
(3 3.78232e-16 0)
(3 4.709e-16 0)
(3 1.91838e-16 0)
(3 9.17771e-16 0)
(3 8.37425e-16 0)
(3 1.77604e-16 0)
(3 -7.75009e-16 0)
(3 -2.20951e-09 0)
(3.00001 -3.31978e-07 0)
(2.93052 0.223335 0)
(1.28082 0.698434 0)
(1.08243 0.719393 0)
(1.08716 0.720638 0)
(1.08161 0.740752 0)
(1.08684 0.762197 0)
(1.11482 0.788371 0)
(1.17565 0.817532 0)
(1.26498 0.839587 0)
(1.37797 0.848357 0)
(3 -7.07339e-17 0)
(3 1.67403e-16 0)
(3 8.36706e-16 0)
(3 9.31908e-16 0)
(3 8.48472e-16 0)
(3 5.84573e-16 0)
(3 6.554e-16 0)
(3 3.81713e-16 0)
(3 1.92496e-16 0)
(3 2.24366e-17 0)
(3 -3.91548e-16 0)
(3 -6.19277e-16 0)
(3 -4.89315e-12 0)
(3 -8.00287e-07 0)
(3.04151 0.00658073 0)
(1.57165 0.660165 0)
(1.10013 0.756529 0)
(1.11152 0.765483 0)
(1.11737 0.783369 0)
(1.13987 0.795354 0)
(1.17392 0.806253 0)
(1.2281 0.81784 0)
(1.30317 0.828617 0)
(1.39836 0.831396 0)
(3 -1.60216e-16 0)
(3 -6.31431e-17 0)
(3 7.12954e-16 0)
(3 7.79588e-16 0)
(3 6.77966e-16 0)
(3 3.16344e-16 0)
(3 3.42684e-16 0)
(3 5.50605e-16 0)
(3 -1.03483e-16 0)
(3 -4.67936e-16 0)
(3 -3.22581e-16 0)
(3 7.80671e-16 0)
(3 -4.58686e-15 0)
(3 -1.53132e-07 0)
(3.00081 3.69652e-05 0)
(2.38715 0.511786 0)
(1.20542 0.789227 0)
(1.13554 0.791969 0)
(1.14912 0.795784 0)
(1.17721 0.805704 0)
(1.21728 0.81729 0)
(1.26992 0.827956 0)
(1.33831 0.834907 0)
(1.41911 0.833957 0)
(3 6.41037e-17 0)
(3 3.2936e-16 0)
(3 2.68475e-16 0)
(3 -4.93305e-17 0)
(3 -5.09438e-16 0)
(3 -3.6629e-16 0)
(3 -5.24177e-16 0)
(3 -6.79937e-16 0)
(3 -8.70283e-16 0)
(3 -1.44714e-15 0)
(3 -6.5542e-16 0)
(3 4.16032e-16 0)
(3 1.2572e-15 0)
(3 -4.79938e-09 0)
(3.00002 -5.25344e-06 0)
(3.05755 0.0728862 0)
(1.56608 0.776924 0)
(1.18486 0.786082 0)
(1.19863 0.794152 0)
(1.22181 0.806629 0)
(1.25962 0.818195 0)
(1.30928 0.827635 0)
(1.37144 0.832566 0)
(1.44249 0.830606 0)
(3 1.24744e-16 0)
(3 -2.78341e-16 0)
(3 -4.4889e-16 0)
(3 -8.20465e-16 0)
(3 -9.15268e-16 0)
(3 -1.13778e-15 0)
(3 -9.01337e-16 0)
(3 -1.07048e-15 0)
(3 -1.04376e-15 0)
(3 -6.20322e-16 0)
(3 5.31151e-16 0)
(3 1.60357e-16 0)
(3 7.10009e-16 0)
(3 -1.7338e-11 0)
(3 -1.32902e-06 0)
(3.00821 0.0013895 0)
(2.29278 0.631925 0)
(1.26324 0.848356 0)
(1.22291 0.833543 0)
(1.25674 0.833662 0)
(1.29075 0.838752 0)
(1.33816 0.843571 0)
(1.39505 0.845298 0)
(1.45827 0.842321 0)
(3 -1.67628e-16 0)
(3 -1.83492e-16 0)
(3 -4.93128e-16 0)
(3 -4.73039e-16 0)
(3 -3.86949e-16 0)
(3 -2.04557e-16 0)
(3 -3.30728e-16 0)
(3 -6.45869e-16 0)
(3 -5.0102e-16 0)
(3 1.56818e-16 0)
(3 3.23773e-16 0)
(3 4.51002e-16 0)
(3 4.99426e-16 0)
(3 -6.83128e-15 0)
(3 -1.13975e-07 0)
(3.00003 9.61757e-06 0)
(3.0389 0.118276 0)
(1.62638 0.827242 0)
(1.26854 0.830775 0)
(1.30511 0.833514 0)
(1.33104 0.839399 0)
(1.37363 0.842125 0)
(1.42387 0.842529 0)
(1.47959 0.839264 0)
(3 2.88358e-17 0)
(3 2.87289e-16 0)
(3 1.6978e-16 0)
(3 -2.46931e-17 0)
(3 -1.96011e-16 0)
(3 1.67408e-16 0)
(3 5.07722e-16 0)
(3 4.34768e-16 0)
(3 1.99297e-16 0)
(3 8.7387e-17 0)
(3 -4.89259e-16 0)
(3 -3.6636e-16 0)
(3 -9.6943e-17 0)
(3 -3.33859e-16 0)
(3 -1.40047e-09 0)
(3 -1.00506e-07 0)
(3.01065 0.00346197 0)
(2.36814 0.637695 0)
(1.35542 0.88577 0)
(1.32661 0.876291 0)
(1.35906 0.868805 0)
(1.395 0.866308 0)
(1.43932 0.861996 0)
(1.48867 0.854102 0)
(3 1.77744e-16 0)
(3 2.13324e-16 0)
(3 -7.69394e-17 0)
(3 -2.82208e-16 0)
(3 -3.54995e-16 0)
(3 -7.56901e-16 0)
(3 -1.58239e-16 0)
(3 4.21606e-16 0)
(3 4.77503e-16 0)
(3 5.29858e-16 0)
(3 -1.4353e-17 0)
(3 -2.94224e-16 0)
(3 -4.78204e-16 0)
(3 -2.45263e-16 0)
(3 -3.17892e-12 0)
(3 -2.51742e-08 0)
(3.00005 4.23253e-05 0)
(3.03148 0.10603 0)
(1.76042 0.836603 0)
(1.36273 0.88164 0)
(1.40199 0.874784 0)
(1.42933 0.868966 0)
(1.46627 0.85945 0)
(1.5076 0.848686 0)
(3 -1.33111e-16 0)
(3 -4.85175e-16 0)
(3 -5.83315e-16 0)
(3 -2.9099e-16 0)
(3 -7.06771e-16 0)
(3 -1.06331e-15 0)
(3 -1.1895e-15 0)
(3 -4.21971e-16 0)
(3 5.11338e-17 0)
(3 1.75917e-16 0)
(3 7.19361e-16 0)
(3 6.90324e-16 0)
(3 2.29717e-16 0)
(3 5.51628e-16 0)
(3 -4.95403e-16 0)
(3 -2.40463e-09 0)
(3 2.45007e-08 0)
(3.00617 0.00436047 0)
(2.6154 0.53111 0)
(1.50506 0.93399 0)
(1.42347 0.903189 0)
(1.45489 0.892599 0)
(1.48464 0.879963 0)
(1.52265 0.868538 0)
(3 -3.92855e-17 0)
(3 -2.41009e-18 0)
(3 -1.36153e-17 0)
(3 -5.32848e-17 0)
(3 1.70722e-17 0)
(3 -1.03177e-16 0)
(3 -1.33272e-16 0)
(3 1.12273e-16 0)
(3 6.28312e-16 0)
(3 5.93949e-16 0)
(3 2.58186e-16 0)
(3 3.18313e-16 0)
(3 2.25232e-16 0)
(3 6.73106e-16 0)
(3 1.64518e-15 0)
(3 -9.85954e-11 0)
(3 -9.68255e-11 0)
(3.00002 4.68149e-05 0)
(3.03531 0.053687 0)
(2.01951 0.797785 0)
(1.47738 0.915003 0)
(1.49451 0.902797 0)
(1.51708 0.887845 0)
(1.55936 0.877798 0)
(3 6.64442e-17 0)
(3 8.6974e-17 0)
(3 3.55145e-16 0)
(3 3.10208e-16 0)
(3 4.2769e-16 0)
(3 5.17366e-16 0)
(3 3.5782e-16 0)
(3 1.17395e-16 0)
(3 6.15536e-16 0)
(3 5.48245e-16 0)
(3 -4.79511e-18 0)
(3 -1.83354e-16 0)
(3 6.8302e-17 0)
(3 9.41301e-16 0)
(3 1.26574e-15 0)
(3 -8.95164e-13 0)
(3 -3.07555e-11 0)
(3 3.63128e-08 0)
(3.00166 0.0023703 0)
(2.83915 0.314623 0)
(1.7399 0.905473 0)
(1.50867 0.925777 0)
(1.54767 0.916092 0)
(1.57798 0.921054 0)
(3 -1.75053e-16 0)
(3 -4.54848e-16 0)
(3 -8.75266e-17 0)
(3 -1.59698e-17 0)
(3 -2.25596e-16 0)
(3 3.35619e-16 0)
(3 1.05032e-16 0)
(3 8.81746e-17 0)
(3 2.30221e-16 0)
(3 6.59472e-17 0)
(3 2.89781e-16 0)
(3 1.88934e-16 0)
(3 1.78608e-16 0)
(3 1.80458e-16 0)
(3 5.92708e-17 0)
(3 -2.1081e-15 0)
(3 -4.05197e-12 0)
(3 3.53124e-12 0)
(3 1.26863e-05 0)
(3.0106 0.020966 0)
(2.40353 0.644373 0)
(1.6147 0.935752 0)
(1.5776 0.950728 0)
(1.55289 0.885276 0)
(3 1.70682e-16 0)
(3 1.9736e-16 0)
(3 -2.90025e-16 0)
(3 -4.26432e-16 0)
(3 -2.54563e-16 0)
(3 -2.20062e-16 0)
(3 -3.46824e-17 0)
(3 -9.18481e-17 0)
(3 -2.98414e-16 0)
(3 -6.89173e-16 0)
(3 -6.8323e-16 0)
(3 -4.78107e-16 0)
(3 -2.21955e-16 0)
(3 -6.29249e-16 0)
(3 -1.13205e-15 0)
(3 -1.18312e-15 0)
(3 -2.55626e-13 0)
(3 -2.55304e-13 0)
(3 6.92657e-09 0)
(3.00008 0.000624242 0)
(2.98498 0.111707 0)
(2.02844 0.794798 0)
(1.64212 0.977923 0)
(1.38014 0.704624 0)
(3 2.54481e-17 0)
(3 1.44315e-16 0)
(3 1.88137e-16 0)
(3 3.65013e-16 0)
(3 6.3879e-16 0)
(3 4.07691e-16 0)
(3 4.4214e-16 0)
(3 -1.01649e-16 0)
(3 -7.71667e-16 0)
(3 -6.25362e-16 0)
(3 -8.98472e-16 0)
(3 -9.76626e-16 0)
(3 -9.14329e-16 0)
(3 -1.2578e-15 0)
(3 -2.36472e-15 0)
(3 -2.12379e-15 0)
(3 -4.57332e-15 0)
(3 -8.49201e-14 0)
(3 1.91754e-12 0)
(3 1.5666e-06 0)
(3.00184 0.00550582 0)
(2.75168 0.343053 0)
(1.64817 0.741626 0)
(1.24088 0.515862 0)
(3 -1.93529e-16 0)
(3 -3.27243e-16 0)
(3 4.14877e-16 0)
(3 7.01897e-16 0)
(3 8.80329e-16 0)
(3 7.81198e-16 0)
(3 5.5558e-16 0)
(3 4.93028e-16 0)
(3 4.69765e-16 0)
(3 7.50092e-16 0)
(3 8.60725e-16 0)
(3 4.76593e-16 0)
(3 -6.97664e-17 0)
(3 -3.82646e-16 0)
(3 -5.61032e-16 0)
(3 -1.15225e-16 0)
(3 -3.0869e-16 0)
(3 -1.28548e-14 0)
(3 -1.30618e-14 0)
(3 6.08868e-10 0)
(3 7.75773e-05 0)
(2.98738 0.00587576 0)
(1.36711 0.238522 0)
(1.07498 0.359529 0)
(3 -1.69333e-16 0)
(3 4.46791e-16 0)
(3 5.22151e-16 0)
(3 6.50368e-16 0)
(3 9.80005e-16 0)
(3 1.1493e-15 0)
(3 9.48653e-16 0)
(3 1.50405e-15 0)
(3 1.97608e-15 0)
(3 1.81487e-15 0)
(3 1.83971e-15 0)
(3 1.42079e-15 0)
(3 1.0024e-15 0)
(3 8.57874e-16 0)
(3 1.02976e-15 0)
(3 6.47038e-16 0)
(3 -4.52115e-16 0)
(3 -1.52377e-15 0)
(3 -5.183e-15 0)
(3 7.24285e-14 0)
(3 2.65012e-07 0)
(2.92824 -0.0286539 0)
(1.05752 0.105599 0)
(0.835253 0.297467 0)
(3 -2.03115e-17 0)
(3 -4.55093e-17 0)
(3 -4.63301e-16 0)
(3 2.29583e-16 0)
(3 3.91215e-16 0)
(3 8.53853e-16 0)
(3 1.08634e-15 0)
(3 5.14193e-16 0)
(3 1.20727e-15 0)
(3 1.53637e-15 0)
(3 1.8526e-15 0)
(3 1.748e-15 0)
(3 1.46885e-15 0)
(3 7.73931e-16 0)
(3 6.82157e-16 0)
(3 5.82892e-16 0)
(3 1.99461e-16 0)
(3 4.63135e-16 0)
(3 -2.09683e-16 0)
(3 -9.52015e-17 0)
(3 2.22204e-10 0)
(2.93604 0.00721824 0)
(1.01944 0.0988161 0)
(0.757291 0.208549 0)
(3 1.17447e-16 0)
(3 -1.536e-16 0)
(3 -3.07757e-16 0)
(3 4.06655e-17 0)
(3 -1.41365e-16 0)
(3 2.0924e-17 0)
(3 2.63348e-16 0)
(3 6.16284e-17 0)
(3 -2.31099e-16 0)
(3 -3.87944e-16 0)
(3 -3.72337e-16 0)
(3 -1.04049e-17 0)
(3 4.26827e-16 0)
(3 4.16887e-17 0)
(3 1.06002e-15 0)
(3 1.54417e-15 0)
(3 1.70558e-15 0)
(3 1.46313e-15 0)
(3 1.68171e-15 0)
(3 8.24445e-16 0)
(3 5.232e-14 0)
(2.98033 0.00969242 0)
(1.092 0.145694 0)
(0.762027 0.163524 0)
(3 -1.07181e-17 0)
(3 1.5233e-16 0)
(3 1.21064e-16 0)
(3 -1.41296e-16 0)
(3 7.4119e-17 0)
(3 -1.53779e-16 0)
(3 -3.95614e-16 0)
(3 -4.88466e-16 0)
(3 -1.21747e-15 0)
(3 -1.70589e-15 0)
(3 -1.83984e-15 0)
(3 -1.25328e-15 0)
(3 -7.6238e-16 0)
(3 -1.66858e-16 0)
(3 1.11433e-15 0)
(3 1.41868e-15 0)
(3 1.78308e-15 0)
(3 1.90798e-15 0)
(3 2.08316e-15 0)
(3 1.50165e-15 0)
(3 8.44817e-16 0)
(3.00007 0.000955934 0)
(1.18088 0.164028 0)
(0.78888 0.148081 0)
(3 -1.09618e-17 0)
(3 -1.16355e-16 0)
(3 -7.21434e-17 0)
(3 -4.24049e-16 0)
(3 -7.15199e-16 0)
(3 -1.36177e-15 0)
(3 -1.67444e-15 0)
(3 -1.84857e-15 0)
(3 -1.8216e-15 0)
(3 -1.37103e-15 0)
(3 -1.78359e-15 0)
(3 -1.93327e-15 0)
(3 -1.19479e-15 0)
(3 -6.22069e-16 0)
(3 -1.72718e-16 0)
(3 4.10553e-17 0)
(3 6.04219e-17 0)
(3 5.46018e-16 0)
(3 7.73036e-16 0)
(3 7.9526e-16 0)
(3 2.25055e-16 0)
(3.00001 3.94893e-06 0)
(1.28416 0.155237 0)
(0.805175 0.134716 0)
(3 3.31099e-18 0)
(3 9.16067e-17 0)
(3 -1.48367e-16 0)
(3 -4.5337e-16 0)
(3 -4.37359e-16 0)
(3 -3.89368e-16 0)
(3 -5.25334e-16 0)
(3 -4.95657e-16 0)
(3 -2.07715e-16 0)
(3 8.26168e-17 0)
(3 -4.9975e-16 0)
(3 -6.40992e-16 0)
(3 -3.86828e-16 0)
(3 -6.78527e-17 0)
(3 -1.18663e-16 0)
(3 -2.8954e-16 0)
(3 -7.98281e-16 0)
(3 -8.20788e-16 0)
(3 -1.05697e-15 0)
(3 -2.08339e-16 0)
(3 -4.02289e-16 0)
(3 2.50825e-09 0)
(1.38941 0.13619 0)
(0.812902 0.113234 0)
(3 8.68257e-17 0)
(3 3.75983e-17 0)
(3 -4.74969e-17 0)
(3 4.358e-17 0)
(3 1.06255e-17 0)
(3 5.81562e-16 0)
(3 9.69852e-16 0)
(3 1.13847e-15 0)
(3 1.42092e-15 0)
(3 1.10592e-15 0)
(3 1.00259e-15 0)
(3 6.79141e-16 0)
(3 -1.29748e-16 0)
(3 -4.68798e-16 0)
(3 -8.96398e-16 0)
(3 -6.06289e-16 0)
(3 -5.56675e-16 0)
(3 -6.11208e-16 0)
(3 -4.57573e-16 0)
(3 6.09159e-18 0)
(3 2.73233e-16 0)
(3 -2.82901e-12 0)
(1.48348 0.109271 0)
(0.817656 0.0895499 0)
(3 3.34085e-17 0)
(3 -7.88504e-17 0)
(3 -2.1428e-17 0)
(3 4.82287e-16 0)
(3 4.37841e-16 0)
(3 4.84268e-16 0)
(3 1.98103e-16 0)
(3 4.56306e-16 0)
(3 4.69557e-16 0)
(3 3.94014e-16 0)
(3 4.67227e-16 0)
(3 -2.49724e-17 0)
(3 -2.44933e-16 0)
(3 -7.01776e-16 0)
(3 -1.31882e-15 0)
(3 -2.05307e-15 0)
(3 -1.33225e-15 0)
(3 -1.65923e-16 0)
(3 5.04841e-16 0)
(3 4.5819e-16 0)
(3 8.69381e-16 0)
(3 -2.72293e-12 0)
(1.56161 0.078231 0)
(0.823493 0.0651312 0)
(3 -1.76559e-16 0)
(3 -6.41807e-18 0)
(3 -1.53517e-16 0)
(3 -2.57978e-16 0)
(3 -1.77376e-16 0)
(3 -3.22013e-16 0)
(3 -6.69127e-17 0)
(3 1.39081e-16 0)
(3 -1.31912e-16 0)
(3 -2.99165e-16 0)
(3 -5.16279e-16 0)
(3 -1.092e-15 0)
(3 -8.8647e-16 0)
(3 -1.01796e-15 0)
(3 -8.95204e-16 0)
(3 -2.98144e-16 0)
(3 -9.15385e-17 0)
(3 -2.6676e-16 0)
(3 -6.10966e-16 0)
(3 -1.27561e-15 0)
(3 -7.34815e-16 0)
(3 -4.80369e-13 0)
(1.61343 0.0421632 0)
(0.827184 0.0377298 0)
(3 -1.11783e-16 0)
(3 4.54576e-17 0)
(3 -2.48552e-16 0)
(3 -7.57264e-16 0)
(3 -8.17896e-16 0)
(3 -8.00064e-16 0)
(3 1.32244e-16 0)
(3 1.7581e-16 0)
(3 -1.18364e-16 0)
(3 -6.46008e-16 0)
(3 -5.77959e-16 0)
(3 -9.55023e-16 0)
(3 -9.92672e-16 0)
(3 -1.04769e-15 0)
(3 -8.94427e-16 0)
(3 -1.37534e-16 0)
(3 2.29792e-16 0)
(3 -2.97774e-16 0)
(3 -1.21183e-15 0)
(3 -1.37664e-15 0)
(3 -1.12969e-15 0)
(3 -1.4468e-14 0)
(1.62635 0.00924725 0)
(0.82114 0.0107034 0)
(1.52214 1.2209 0)
(2.05465 1.3943 0)
(2.19354 1.69585 0)
(2.20656 0.780166 0)
(2.45909 0.35485 0)
(2.57721 -0.048532 0)
(2.6317 -0.190322 0)
(2.56971 -0.274025 0)
(2.46592 -0.273184 0)
(2.43362 -0.326358 0)
(2.47109 -0.352669 0)
(2.43881 -0.28895 0)
(2.39552 -0.185231 0)
(2.36266 -0.104089 0)
(2.33109 -0.08043 0)
(2.3745 -0.0754051 0)
(2.4072 -0.0583699 0)
(2.40646 -0.0407105 0)
(2.40038 -0.0305767 0)
(2.03963 0.0123135 0)
(0.914444 0.0468899 0)
(0.709169 0.0435345 0)
(0.687604 0.0183474 0)
(0.678151 -0.00472202 0)
(0.686541 -0.0139326 0)
(0.706215 -0.0196436 0)
(0.739117 -0.0244711 0)
(0.775784 -0.0283648 0)
(0.807474 -0.0299843 0)
(0.833532 -0.0292599 0)
(0.855656 -0.0263755 0)
(0.880777 -0.0223988 0)
(0.911726 -0.0196523 0)
(0.947158 -0.019518 0)
(0.982406 -0.0209196 0)
(1.0111 -0.0225857 0)
(1.03177 -0.0221158 0)
(1.0488 -0.0202908 0)
(1.06682 -0.0179059 0)
(1.08898 -0.0156769 0)
(1.11671 -0.0144558 0)
(1.14807 -0.0142186 0)
(1.17813 -0.0142745 0)
(1.20254 -0.014097 0)
(1.2223 -0.0134508 0)
(1.24083 -0.0125084 0)
(1.25986 -0.0112604 0)
(1.28021 -0.00957755 0)
(1.30218 -0.0076823 0)
(1.32621 -0.00634249 0)
(1.35351 -0.0063407 0)
(1.38143 -0.00764505 0)
(1.40263 -0.00901787 0)
(1.42033 -0.00913078 0)
(1.43728 -0.00816427 0)
(1.45401 -0.00615765 0)
(1.47198 -0.0045207 0)
(1.49167 -0.00286623 0)
(1.51626 -0.00149948 0)
(1.54281 -0.000699511 0)
(1.56185 -0.000335217 0)
(1.57768 -0.000138079 0)
(1.59264 7.52259e-07 0)
(1.60803 -9.52929e-05 0)
(1.62433 -0.00033991 0)
(1.6419 -0.000428316 0)
(1.65986 -0.000170767 0)
(1.67732 0.000647735 0)
(1.69332 0.00236419 0)
(1.70713 0.00405803 0)
(1.72018 0.00502233 0)
(1.73528 0.004922 0)
(1.75223 0.00469454 0)
(1.76998 0.00435083 0)
(1.78801 0.00430413 0)
(1.80571 0.00444334 0)
(1.82212 0.00471216 0)
(1.83695 0.00503799 0)
(1.85088 0.00518937 0)
(1.86492 0.00517985 0)
(1.87964 0.00534707 0)
(1.8947 0.00569387 0)
(1.90922 0.00607425 0)
(1.9221 0.00659344 0)
(1.93307 0.00728337 0)
(1.94403 0.00759764 0)
(1.95828 0.00735086 0)
(1.97408 0.00719465 0)
(1.99017 0.00674777 0)
(2.00591 0.00654325 0)
(2.02113 0.00659136 0)
(2.0301 0.00692874 0)
(2.03121 0.00850828 0)
(2.03665 0.0091473 0)
(2.05668 0.00982662 0)
(2.06436 0.0061907 0)
(1.76241 1.08715 0)
(2.29417 0.716001 0)
(2.54109 0.577087 0)
(2.60891 0.193389 0)
(2.6881 -0.267761 0)
(2.68317 -0.500173 0)
(2.71696 -0.561737 0)
(2.71796 -0.566443 0)
(2.69778 -0.514143 0)
(2.64925 -0.494286 0)
(2.62412 -0.464767 0)
(2.56581 -0.39363 0)
(2.47733 -0.270012 0)
(2.4405 -0.141514 0)
(2.42815 -0.0594927 0)
(2.44716 -0.0483186 0)
(2.45204 0.00213941 0)
(2.44911 -0.00547473 0)
(2.44163 -0.00579848 0)
(2.2089 0.104165 0)
(0.996647 0.181405 0)
(0.794944 0.0852134 0)
(0.776646 0.00410319 0)
(0.783083 -0.0373593 0)
(0.803906 -0.0500126 0)
(0.826178 -0.0426012 0)
(0.847439 -0.0296412 0)
(0.867316 -0.0284059 0)
(0.888762 -0.0381315 0)
(0.912894 -0.0466791 0)
(0.938378 -0.0457226 0)
(0.964069 -0.035131 0)
(0.989047 -0.0197403 0)
(1.01252 -0.0103654 0)
(1.03494 -0.012646 0)
(1.05883 -0.0219801 0)
(1.08218 -0.0307563 0)
(1.10176 -0.0317678 0)
(1.11897 -0.0268607 0)
(1.138 -0.0191608 0)
(1.16117 -0.0126816 0)
(1.18782 -0.00997217 0)
(1.21448 -0.0105474 0)
(1.2368 -0.0125649 0)
(1.25535 -0.0147429 0)
(1.27276 -0.0159178 0)
(1.29073 -0.0157679 0)
(1.31068 -0.0141614 0)
(1.33343 -0.0104199 0)
(1.35827 -0.00413545 0)
(1.38285 0.00183317 0)
(1.40395 0.00159925 0)
(1.42212 -0.00335357 0)
(1.44058 -0.00922904 0)
(1.45784 -0.0119236 0)
(1.47475 -0.0114602 0)
(1.49221 -0.00831625 0)
(1.51187 -0.00419217 0)
(1.53551 0.000312586 0)
(1.55966 0.00351017 0)
(1.57778 0.00468691 0)
(1.5938 0.00609849 0)
(1.60752 0.00864319 0)
(1.61903 0.00936851 0)
(1.63275 0.00734999 0)
(1.64921 0.0032014 0)
(1.66839 -0.00108228 0)
(1.68747 -0.00231421 0)
(1.70525 -0.00155116 0)
(1.72222 0.0029218 0)
(1.73641 0.0104239 0)
(1.74779 0.0167935 0)
(1.76146 0.0176649 0)
(1.77848 0.0154258 0)
(1.79676 0.0110614 0)
(1.81465 0.00909026 0)
(1.83271 0.00910198 0)
(1.84974 0.0113937 0)
(1.86413 0.0156571 0)
(1.87573 0.0185234 0)
(1.88789 0.0166865 0)
(1.90219 0.0124531 0)
(1.91689 0.00916581 0)
(1.9315 0.00838328 0)
(1.94582 0.011346 0)
(1.95875 0.0180589 0)
(1.96927 0.0247455 0)
(1.98151 0.0255183 0)
(1.99767 0.0231882 0)
(2.01439 0.017556 0)
(2.02887 0.0120321 0)
(2.04067 0.00903054 0)
(2.04787 0.0146211 0)
(2.04928 0.0255671 0)
(2.06244 0.0268795 0)
(2.05826 0.00473807 0)
(1.66697 1.04476 0)
(2.06214 0.850216 0)
(2.34011 0.610856 0)
(2.48895 0.437756 0)
(2.61914 0.148537 0)
(2.65909 -0.111559 0)
(2.68851 -0.136427 0)
(2.70497 -0.149229 0)
(2.74043 -0.277634 0)
(2.75576 -0.364551 0)
(2.7712 -0.488888 0)
(2.75503 -0.549744 0)
(2.70088 -0.474741 0)
(2.67165 -0.354499 0)
(2.66796 -0.270609 0)
(2.66357 -0.245669 0)
(2.59542 -0.146031 0)
(2.56173 -0.116778 0)
(2.53702 -0.0604935 0)
(2.55795 -0.069979 0)
(1.34834 0.18716 0)
(1.00742 0.095381 0)
(1.01018 0.00840289 0)
(1.02032 -0.0226687 0)
(1.03306 -0.0345775 0)
(1.0563 -0.0523576 0)
(1.07205 -0.0583209 0)
(1.07749 -0.0567598 0)
(1.07759 -0.0535618 0)
(1.08351 -0.0555477 0)
(1.09904 -0.0624398 0)
(1.12285 -0.0669327 0)
(1.14634 -0.0650996 0)
(1.16235 -0.0575658 0)
(1.17397 -0.048721 0)
(1.18617 -0.0435299 0)
(1.19813 -0.0440438 0)
(1.21308 -0.0480495 0)
(1.22946 -0.0499644 0)
(1.24612 -0.0486321 0)
(1.26435 -0.0453482 0)
(1.28554 -0.0414269 0)
(1.30791 -0.037155 0)
(1.32599 -0.033304 0)
(1.33996 -0.0309273 0)
(1.35343 -0.0291377 0)
(1.36771 -0.0289834 0)
(1.38415 -0.0295746 0)
(1.40477 -0.0299526 0)
(1.42937 -0.0280248 0)
(1.45147 -0.0240786 0)
(1.46823 -0.0216104 0)
(1.48364 -0.0188989 0)
(1.49741 -0.0174295 0)
(1.51173 -0.0178892 0)
(1.52756 -0.018225 0)
(1.54436 -0.0172513 0)
(1.5631 -0.0139437 0)
(1.58436 -0.0097721 0)
(1.60405 -0.00792955 0)
(1.62022 -0.00789278 0)
(1.63558 -0.00711509 0)
(1.64966 -0.00411958 0)
(1.66138 0.0022392 0)
(1.67139 0.00970284 0)
(1.68381 0.0135367 0)
(1.69968 0.0133974 0)
(1.71733 0.00939938 0)
(1.73688 0.00497709 0)
(1.7539 0.00345235 0)
(1.77007 0.00448742 0)
(1.78351 0.00963788 0)
(1.79323 0.0164087 0)
(1.80499 0.018449 0)
(1.82137 0.0168204 0)
(1.83895 0.013877 0)
(1.85696 0.011825 0)
(1.87447 0.0118718 0)
(1.89155 0.0148262 0)
(1.90516 0.0220602 0)
(1.91193 0.0301091 0)
(1.918 0.0305739 0)
(1.93218 0.0253776 0)
(1.94859 0.0207097 0)
(1.96499 0.0184417 0)
(1.98173 0.0192703 0)
(1.99676 0.025787 0)
(2.00697 0.0373253 0)
(2.01243 0.0440583 0)
(2.021 0.0401145 0)
(2.03445 0.0330983 0)
(2.05003 0.0274691 0)
(2.06449 0.0246743 0)
(2.07373 0.0298387 0)
(2.07564 0.021713 0)
(2.04288 -0.0233591 0)
(1.60884 0.979781 0)
(1.88622 0.884563 0)
(2.14009 0.722487 0)
(2.34733 0.532106 0)
(2.46273 0.366361 0)
(2.5653 0.128675 0)
(2.61966 -0.0437886 0)
(2.67255 -0.12206 0)
(2.71724 -0.22675 0)
(2.75387 -0.348703 0)
(2.76884 -0.429186 0)
(2.74943 -0.499812 0)
(2.7699 -0.513197 0)
(2.78812 -0.497998 0)
(2.77267 -0.449278 0)
(2.7486 -0.413313 0)
(2.6842 -0.334775 0)
(2.63924 -0.299274 0)
(2.64163 -0.200887 0)
(2.58388 -0.368644 0)
(1.99295 -0.0693683 0)
(1.26116 0.0757689 0)
(1.22653 0.0368678 0)
(1.24544 -0.0124692 0)
(1.25786 -0.0412585 0)
(1.27018 -0.0541068 0)
(1.27928 -0.0643849 0)
(1.28128 -0.0669014 0)
(1.2775 -0.061811 0)
(1.27296 -0.0496331 0)
(1.27786 -0.0418764 0)
(1.28972 -0.0403757 0)
(1.30758 -0.0457549 0)
(1.32332 -0.0511204 0)
(1.33248 -0.0511073 0)
(1.33924 -0.0462453 0)
(1.34444 -0.0384156 0)
(1.35332 -0.0337258 0)
(1.36461 -0.0325041 0)
(1.37789 -0.0321624 0)
(1.39284 -0.0313403 0)
(1.40962 -0.0295452 0)
(1.42671 -0.0283623 0)
(1.44034 -0.0284906 0)
(1.45266 -0.027416 0)
(1.46331 -0.0236168 0)
(1.47426 -0.0189551 0)
(1.4883 -0.0151053 0)
(1.50528 -0.0113021 0)
(1.52594 -0.00989364 0)
(1.54385 -0.0123411 0)
(1.55838 -0.0138871 0)
(1.57127 -0.0136879 0)
(1.58147 -0.0114292 0)
(1.59195 -0.00900019 0)
(1.60585 -0.00658953 0)
(1.62185 -0.00322722 0)
(1.63969 0.00264858 0)
(1.65703 0.00744901 0)
(1.67263 0.00903554 0)
(1.6864 0.00974381 0)
(1.69911 0.00879278 0)
(1.71152 0.00659617 0)
(1.7232 0.00477851 0)
(1.73427 0.00573035 0)
(1.74606 0.010565 0)
(1.75937 0.0169719 0)
(1.77406 0.0221854 0)
(1.78954 0.0239682 0)
(1.80546 0.0235684 0)
(1.82114 0.0223861 0)
(1.83516 0.0219592 0)
(1.84497 0.0241793 0)
(1.85227 0.0283191 0)
(1.86362 0.0303689 0)
(1.87934 0.0300776 0)
(1.89596 0.0285584 0)
(1.91274 0.0260498 0)
(1.92904 0.0243602 0)
(1.94408 0.0243385 0)
(1.95364 0.0285797 0)
(1.95603 0.0367741 0)
(1.96248 0.0411949 0)
(1.97714 0.0411395 0)
(1.99344 0.0400767 0)
(2.00995 0.0379356 0)
(2.02603 0.0369487 0)
(2.0402 0.0392474 0)
(2.04757 0.0463846 0)
(2.04833 0.0543064 0)
(2.05509 0.0545819 0)
(2.07093 0.0524293 0)
(2.08359 0.0486844 0)
(2.0897 0.0357714 0)
(2.07698 0.00376198 0)
(2.00924 -0.0911184 0)
(1.56016 0.931642 0)
(1.79387 0.853882 0)
(2.00736 0.734031 0)
(2.17567 0.618914 0)
(2.31614 0.484983 0)
(2.4264 0.322925 0)
(2.51815 0.15359 0)
(2.57822 0.0162435 0)
(2.62996 -0.047093 0)
(2.65793 -0.0794125 0)
(2.66304 -0.154096 0)
(2.6899 -0.255059 0)
(2.70904 -0.340323 0)
(2.72834 -0.395406 0)
(2.77677 -0.394967 0)
(2.75297 -0.398005 0)
(2.72644 -0.403406 0)
(2.6908 -0.422624 0)
(2.63375 -0.431284 0)
(2.42299 -0.626003 0)
(2.35058 -0.728143 0)
(1.69291 -0.183127 0)
(1.34854 -0.0186871 0)
(1.33591 0.0162038 0)
(1.36357 -0.00884579 0)
(1.38686 -0.0375602 0)
(1.39369 -0.055341 0)
(1.39661 -0.065983 0)
(1.3996 -0.0678475 0)
(1.40086 -0.0626271 0)
(1.40166 -0.0539188 0)
(1.40826 -0.0487053 0)
(1.41777 -0.0482077 0)
(1.43133 -0.051765 0)
(1.44361 -0.0549264 0)
(1.45207 -0.0550311 0)
(1.45898 -0.0527321 0)
(1.46512 -0.0491995 0)
(1.47467 -0.0467851 0)
(1.48626 -0.0444413 0)
(1.49975 -0.0405797 0)
(1.51457 -0.03659 0)
(1.52775 -0.0352566 0)
(1.53974 -0.0353308 0)
(1.5514 -0.0350724 0)
(1.56182 -0.0338076 0)
(1.57258 -0.0306067 0)
(1.58588 -0.026575 0)
(1.60149 -0.0219151 0)
(1.61756 -0.0191805 0)
(1.63178 -0.0191004 0)
(1.64485 -0.0188893 0)
(1.6559 -0.0180586 0)
(1.66396 -0.0165756 0)
(1.67286 -0.0145869 0)
(1.68664 -0.0122532 0)
(1.7023 -0.00827408 0)
(1.71833 -0.00387163 0)
(1.73354 -0.000808202 0)
(1.74736 0.00292797 0)
(1.75916 0.00698591 0)
(1.76943 0.0101659 0)
(1.77936 0.0114948 0)
(1.78992 0.0113869 0)
(1.8016 0.0117207 0)
(1.81451 0.0139472 0)
(1.82782 0.0177004 0)
(1.84073 0.0216288 0)
(1.85362 0.0244979 0)
(1.86715 0.0257178 0)
(1.8808 0.0257121 0)
(1.89325 0.0251213 0)
(1.90299 0.0253743 0)
(1.91049 0.0282722 0)
(1.91907 0.0330673 0)
(1.93093 0.0362298 0)
(1.94529 0.0372386 0)
(1.96043 0.037308 0)
(1.97543 0.0369768 0)
(1.98931 0.036345 0)
(1.99953 0.0366927 0)
(2.00299 0.0405297 0)
(2.00583 0.0468072 0)
(2.01716 0.0502362 0)
(2.03175 0.0514354 0)
(2.04688 0.0523749 0)
(2.06213 0.0526993 0)
(2.07652 0.0529175 0)