/*--------------------------------*- C++ -*----------------------------------*\
  =========                 |
  \\      /  F ield         | OpenFOAM: The Open Source CFD Toolbox
   \\    /   O peration     | Website:  https://openfoam.org
    \\  /    A nd           | Version:  7
     \\/     M anipulation  |
\*---------------------------------------------------------------------------*/
FoamFile
{
    version     2.0;
    format      ascii;
    class       volVectorField;
    location    "55";
    object      U;
}
// * * * * * * * * * * * * * * * * * * * * * * * * * * * * * * * * * * * * * //

dimensions      [0 1 -1 0 0 0 0];

internalField   nonuniform List<vector> 
1987
(
(1.09051 0.0573264 0)
(1.08805 0.0559386 0)
(1.08565 0.0544274 0)
(1.08331 0.0528014 0)
(1.08105 0.0510716 0)
(1.07888 0.0492519 0)
(1.07681 0.0473589 0)
(1.07485 0.0454108 0)
(1.073 0.0434283 0)
(1.07128 0.0414327 0)
(1.06967 0.0394468 0)
(1.06819 0.0374927 0)
(1.06683 0.0355932 0)
(1.06558 0.0337683 0)
(1.06443 0.0320381 0)
(1.06338 0.0304178 0)
(1.06241 0.0289223 0)
(1.10108 0.0564138 0)
(1.09843 0.0550554 0)
(1.09585 0.0535772 0)
(1.09335 0.0519875 0)
(1.09094 0.0502973 0)
(1.08863 0.0485199 0)
(1.08643 0.0466713 0)
(1.08435 0.0447692 0)
(1.0824 0.0428335 0)
(1.08057 0.0408848 0)
(1.07887 0.0389449 0)
(1.0773 0.0370352 0)
(1.07586 0.0351776 0)
(1.07454 0.0333915 0)
(1.07332 0.0316962 0)
(1.07221 0.0301065 0)
(1.07118 0.0286368 0)
(1.07022 0.0272944 0)
(1.06931 0.0260878 0)
(1.06844 0.0250145 0)
(1.06759 0.0240766 0)
(1.06674 0.0232608 0)
(1.06589 0.0225641 0)
(1.06499 0.0219622 0)
(1.06408 0.0214509 0)
(1.06311 0.0209953 0)
(1.0621 0.0205955 0)
(1.06102 0.0202064 0)
(1.05992 0.0198402 0)
(1.05873 0.0194412 0)
(1.05754 0.0190417 0)
(1.05628 0.0185735 0)
(1.05504 0.0180981 0)
(1.05373 0.0175295 0)
(1.05249 0.0169679 0)
(1.05118 0.0163007 0)
(1.04998 0.0156766 0)
(1.04871 0.0149442 0)
(1.04761 0.0143107 0)
(1.04641 0.0135694 0)
(1.04542 0.0129977 0)
(1.04429 0.0123138 0)
(1.04343 0.0118779 0)
(1.04237 0.0113117 0)
(1.04164 0.0110707 0)
(1.0406 0.0106626 0)
(1.04 0.0106445 0)
(1.03893 0.010408 0)
(1.03844 0.0105972 0)
(1.03729 0.0105235 0)
(1.03691 0.0108544 0)
(1.03561 0.0109293 0)
(1.03535 0.0112882 0)
(1.03386 0.0115152 0)
(1.03373 0.0117559 0)
(1.03202 0.0121624 0)
(1.10976 0.0554115 0)
(1.10699 0.0540874 0)
(1.10429 0.052647 0)
(1.10167 0.0510987 0)
(1.09916 0.0494529 0)
(1.09675 0.0477226 0)
(1.09445 0.0459232 0)
(1.09229 0.0440718 0)
(1.09025 0.0421874 0)
(1.08835 0.0402897 0)
(1.08658 0.0383999 0)
(1.08495 0.0365384 0)
(1.08345 0.0347262 0)
(1.08207 0.0329819 0)
(1.08081 0.0313244 0)
(1.07964 0.0297675 0)
(1.07857 0.0283256 0)
(1.07756 0.0270056 0)
(1.07662 0.0258159 0)
(1.0757 0.0247541 0)
(1.07482 0.0238225 0)
(1.07393 0.0230084 0)
(1.07304 0.0223093 0)
(1.07211 0.0217018 0)
(1.07116 0.0211823 0)
(1.07016 0.0207168 0)
(1.06912 0.0203064 0)
(1.06801 0.019907 0)
(1.06688 0.019531 0)
(1.06567 0.0191244 0)
(1.06446 0.0187188 0)
(1.06318 0.0182482 0)
(1.06194 0.0177717 0)
(1.06062 0.0172071 0)
(1.05938 0.0166497 0)
(1.05808 0.015993 0)
(1.0569 0.0153772 0)
(1.05565 0.0146607 0)
(1.05457 0.0140373 0)
(1.05339 0.0133156 0)
(1.05244 0.0127529 0)
(1.05133 0.0120907 0)
(1.05052 0.0116594 0)
(1.04947 0.011116 0)
(1.04879 0.0108725 0)
(1.04776 0.010488 0)
(1.04719 0.0104581 0)
(1.04611 0.0102468 0)
(1.04565 0.0104141 0)
(1.04446 0.010368 0)
(1.04409 0.0106682 0)
(1.04274 0.0107728 0)
(1.04248 0.0110974 0)
(1.0409 0.0113516 0)
(1.04077 0.011566 0)
(1.03895 0.0119855 0)
(1.11669 0.0543331 0)
(1.11384 0.0530471 0)
(1.11107 0.0516486 0)
(1.10838 0.0501456 0)
(1.1058 0.0485482 0)
(1.10332 0.046869 0)
(1.10097 0.0451227 0)
(1.09875 0.0433257 0)
(1.09666 0.0414962 0)
(1.09471 0.0396532 0)
(1.0929 0.0378167 0)
(1.09122 0.0360065 0)
(1.08968 0.0342426 0)
(1.08826 0.0325429 0)
(1.08696 0.0309254 0)
(1.08577 0.0294035 0)
(1.08466 0.0279913 0)
(1.08362 0.0266951 0)
(1.08265 0.0255235 0)
(1.0817 0.0244741 0)
(1.08079 0.0235497 0)
(1.07987 0.0227378 0)
(1.07896 0.0220368 0)
(1.07801 0.0214238 0)
(1.07704 0.0208963 0)
(1.07601 0.0204214 0)
(1.07496 0.0200005 0)
(1.07384 0.0195913 0)
(1.0727 0.019206 0)
(1.07148 0.0187927 0)
(1.07027 0.0183816 0)
(1.06899 0.0179099 0)
(1.06774 0.0174335 0)
(1.06644 0.0168745 0)
(1.06521 0.0163226 0)
(1.06392 0.0156782 0)
(1.06276 0.015072 0)
(1.06154 0.0143732 0)
(1.06049 0.0137609 0)
(1.05934 0.0130605 0)
(1.05842 0.0125072 0)
(1.05735 0.011868 0)
(1.05658 0.0114411 0)
(1.05556 0.0109208 0)
(1.05492 0.0106738 0)
(1.0539 0.0103125 0)
(1.05337 0.0102693 0)
(1.0523 0.0100818 0)
(1.05186 0.0102255 0)
(1.05066 0.010205 0)
(1.05031 0.0104734 0)
(1.04892 0.0106047 0)
(1.04867 0.0108952 0)
(1.04704 0.0111727 0)
(1.04691 0.0113624 0)
(1.04501 0.0117917 0)
(1.12205 0.0531924 0)
(1.11916 0.0519476 0)
(1.11635 0.0505939 0)
(1.11363 0.0491392 0)
(1.11102 0.0475933 0)
(1.10851 0.0459682 0)
(1.10613 0.044278 0)
(1.10388 0.0425384 0)
(1.10177 0.0407666 0)
(1.09979 0.0389809 0)
(1.09795 0.0372004 0)
(1.09625 0.0354439 0)
(1.09468 0.0337306 0)
(1.09324 0.0320775 0)
(1.09191 0.0305021 0)
(1.09069 0.029017 0)
(1.08956 0.0276359 0)
(1.0885 0.026365 0)
(1.0875 0.0252127 0)
(1.08654 0.0241767 0)
(1.08561 0.0232602 0)
(1.08468 0.0224512 0)
(1.08375 0.0217488 0)
(1.08278 0.0211309 0)
(1.08181 0.0205958 0)
(1.08077 0.0201118 0)
(1.07971 0.0196808 0)
(1.07859 0.0192624 0)
(1.07744 0.0188683 0)
(1.07623 0.018449 0)
(1.07503 0.0180332 0)
(1.07375 0.0175614 0)
(1.07253 0.017086 0)
(1.07123 0.016534 0)
(1.07003 0.0159887 0)
(1.06877 0.0153582 0)
(1.06764 0.0147627 0)
(1.06644 0.0140832 0)
(1.06543 0.013483 0)
(1.06431 0.0128052 0)
(1.06344 0.0122619 0)
(1.0624 0.0116464 0)
(1.06167 0.0112239 0)
(1.06068 0.010727 0)
(1.06008 0.0104759 0)
(1.05909 0.0101372 0)
(1.05859 0.0100796 0)
(1.05753 0.00991448 0)
(1.05713 0.0100336 0)
(1.05592 0.0100361 0)
(1.05559 0.0102724 0)
(1.05418 0.0104269 0)
(1.05395 0.0106842 0)
(1.05228 0.0109808 0)
(1.05216 0.0111476 0)
(1.05022 0.0115833 0)
(1.12606 0.0520019 0)
(1.12316 0.0508003 0)
(1.12035 0.0494936 0)
(1.11762 0.0480894 0)
(1.115 0.0465971 0)
(1.11249 0.0450283 0)
(1.1101 0.0433963 0)
(1.10784 0.0417161 0)
(1.10572 0.0400042 0)
(1.10373 0.0382778 0)
(1.10188 0.0365552 0)
(1.10017 0.0348543 0)
(1.09858 0.0331934 0)
(1.09713 0.0315887 0)
(1.09579 0.0300569 0)
(1.09455 0.0286101 0)
(1.0934 0.0272615 0)
(1.09233 0.026017 0)
(1.09131 0.024885 0)
(1.09034 0.0238635 0)
(1.0894 0.0229557 0)
(1.08845 0.0221504 0)
(1.08751 0.0214472 0)
(1.08655 0.0208251 0)
(1.08556 0.0202828 0)
(1.08453 0.0197904 0)
(1.08347 0.0193498 0)
(1.08235 0.0189228 0)
(1.08122 0.0185204 0)
(1.08002 0.0180959 0)
(1.07883 0.0176761 0)
(1.07758 0.0172052 0)
(1.07637 0.0167315 0)
(1.0751 0.0161877 0)
(1.07393 0.0156499 0)
(1.07269 0.0150345 0)
(1.0716 0.0144507 0)
(1.07043 0.0137917 0)
(1.06946 0.0132043 0)
(1.06837 0.0125503 0)
(1.06754 0.0120174 0)
(1.06653 0.0114264 0)
(1.06585 0.0110084 0)
(1.06489 0.0105351 0)
(1.06433 0.0102796 0)
(1.06336 0.0099627 0)
(1.06291 0.00989031 0)
(1.06186 0.00974581 0)
(1.06149 0.00984014 0)
(1.06029 0.00986277 0)
(1.05999 0.0100674 0)
(1.05858 0.0102412 0)
(1.05835 0.0104669 0)
(1.05667 0.0107781 0)
(1.05656 0.0109241 0)
(1.0546 0.0113626 0)
(1.12895 0.0507714 0)
(1.12606 0.0496143 0)
(1.12326 0.0483561 0)
(1.12055 0.0470038 0)
(1.11794 0.0455667 0)
(1.11544 0.0440555 0)
(1.11306 0.0424832 0)
(1.11081 0.0408639 0)
(1.10869 0.0392133 0)
(1.1067 0.0375476 0)
(1.10485 0.0358844 0)
(1.10313 0.0342403 0)
(1.10155 0.0326332 0)
(1.10008 0.0310781 0)
(1.09873 0.0295911 0)
(1.09748 0.0281839 0)
(1.09632 0.0268689 0)
(1.09524 0.0256521 0)
(1.09421 0.0245415 0)
(1.09323 0.0235354 0)
(1.09228 0.0226373 0)
(1.09133 0.0218366 0)
(1.09038 0.0211333 0)
(1.08941 0.0205078 0)
(1.08843 0.019959 0)
(1.0874 0.0194589 0)
(1.08636 0.0190094 0)
(1.08525 0.0185744 0)
(1.08413 0.0181643 0)
(1.08295 0.0177356 0)
(1.08178 0.0173123 0)
(1.08055 0.0168432 0)
(1.07938 0.0163719 0)
(1.07814 0.0158373 0)
(1.07699 0.0153077 0)
(1.07579 0.0147085 0)
(1.07473 0.0141369 0)
(1.07359 0.0134995 0)
(1.07266 0.0129256 0)
(1.07161 0.0122961 0)
(1.07082 0.0117742 0)
(1.06984 0.0112082 0)
(1.06919 0.010795 0)
(1.06827 0.010345 0)
(1.06775 0.0100852 0)
(1.06681 0.00978928 0)
(1.06639 0.00970211 0)
(1.06536 0.00957635 0)
(1.06502 0.00964623 0)
(1.06384 0.00968605 0)
(1.06356 0.00986019 0)
(1.06215 0.0100491 0)
(1.06194 0.0102452 0)
(1.06027 0.0105663 0)
(1.06017 0.0106938 0)
(1.0582 0.0111317 0)
(1.13093 0.0495079 0)
(1.12808 0.0483964 0)
(1.12531 0.0471875 0)
(1.12263 0.0458881 0)
(1.12005 0.0445069 0)
(1.11757 0.0430544 0)
(1.11521 0.0415427 0)
(1.11297 0.0399851 0)
(1.11086 0.0383966 0)
(1.10888 0.0367926 0)
(1.10703 0.0351896 0)
(1.10532 0.0336035 0)
(1.10373 0.032051 0)
(1.10226 0.0305465 0)
(1.1009 0.0291055 0)
(1.09964 0.0277387 0)
(1.09847 0.0264584 0)
(1.09738 0.0252702 0)
(1.09634 0.0241821 0)
(1.09535 0.0231925 0)
(1.09439 0.0223051 0)
(1.09343 0.02151 0)
(1.09249 0.0208076 0)
(1.09152 0.0201796 0)
(1.09054 0.0196253 0)
(1.08952 0.0191183 0)
(1.08849 0.0186606 0)
(1.08739 0.0182186 0)
(1.08629 0.0178016 0)
(1.08513 0.0173692 0)
(1.08399 0.0169432 0)
(1.08279 0.0164767 0)
(1.08164 0.0160085 0)
(1.08043 0.0154837 0)
(1.07933 0.014963 0)
(1.07815 0.0143807 0)
(1.07713 0.0138221 0)
(1.07603 0.0132069 0)
(1.07513 0.012647 0)
(1.07411 0.0120427 0)
(1.07335 0.0115321 0)
(1.07241 0.0109913 0)
(1.0718 0.0105833 0)
(1.0709 0.0101564 0)
(1.07041 0.0098927 0)
(1.0695 0.00961665 0)
(1.06911 0.00951526 0)
(1.06811 0.00940621 0)
(1.06779 0.00945263 0)
(1.06663 0.00950648 0)
(1.06637 0.00965184 0)
(1.06498 0.00985171 0)
(1.06479 0.0100207 0)
(1.06313 0.0103471 0)
(1.06303 0.0104584 0)
(1.06107 0.0108925 0)
(1.13224 0.0482161 0)
(1.12943 0.0471506 0)
(1.12669 0.0459916 0)
(1.12405 0.0447455 0)
(1.12149 0.0434208 0)
(1.11904 0.0420274 0)
(1.11671 0.0405767 0)
(1.11449 0.0390813 0)
(1.11239 0.0375555 0)
(1.11043 0.0360136 0)
(1.10859 0.0344715 0)
(1.10687 0.0329438 0)
(1.10528 0.0314467 0)
(1.10381 0.0299937 0)
(1.10244 0.0285993 0)
(1.10117 0.0272739 0)
(1.1 0.0260293 0)
(1.09889 0.0248708 0)
(1.09784 0.0238062 0)
(1.09684 0.0228341 0)
(1.09587 0.0219585 0)
(1.09491 0.0211702 0)
(1.09396 0.0204698 0)
(1.09299 0.0198405 0)
(1.09202 0.0192817 0)
(1.091 0.0187689 0)
(1.08998 0.018304 0)
(1.0889 0.0178559 0)
(1.08782 0.0174327 0)
(1.08669 0.0169977 0)
(1.08557 0.0165696 0)
(1.0844 0.0161063 0)
(1.08328 0.0156417 0)
(1.0821 0.0151276 0)
(1.08103 0.0146162 0)
(1.07989 0.0140514 0)
(1.0789 0.0135061 0)
(1.07783 0.0129138 0)
(1.07696 0.0123683 0)
(1.07597 0.0117893 0)
(1.07525 0.0112907 0)
(1.07433 0.0107751 0)
(1.07375 0.0103727 0)
(1.07287 0.00996847 0)
(1.07241 0.00970151 0)
(1.07152 0.00944414 0)
(1.07116 0.00932955 0)
(1.07018 0.00923507 0)
(1.06989 0.00925957 0)
(1.06875 0.00932424 0)
(1.06851 0.00944304 0)
(1.06714 0.00964972 0)
(1.06696 0.00979441 0)
(1.06532 0.0101217 0)
(1.06524 0.010219 0)
(1.0633 0.0106464 0)
(1.13304 0.0468985 0)
(1.13027 0.0458793 0)
(1.12758 0.0447703 0)
(1.12497 0.0435778 0)
(1.12245 0.0423097 0)
(1.12003 0.0409755 0)
(1.11772 0.039586 0)
(1.11553 0.038153 0)
(1.11345 0.03669 0)
(1.11149 0.0352105 0)
(1.10966 0.0337294 0)
(1.10794 0.0322607 0)
(1.10635 0.0308193 0)
(1.10487 0.0294182 0)
(1.1035 0.0280712 0)
(1.10222 0.026788 0)
(1.10103 0.0255799 0)
(1.0999 0.0244521 0)
(1.09885 0.023412 0)
(1.09783 0.0224588 0)
(1.09685 0.0215962 0)
(1.09588 0.0208159 0)
(1.09492 0.0201189 0)
(1.09395 0.0194895 0)
(1.09298 0.0189274 0)
(1.09197 0.0184102 0)
(1.09096 0.0179391 0)
(1.08989 0.0174861 0)
(1.08883 0.0170576 0)
(1.08772 0.0166208 0)
(1.08663 0.0161913 0)
(1.08548 0.0157322 0)
(1.08439 0.0152718 0)
(1.08324 0.0147689 0)
(1.0822 0.0142671 0)
(1.08109 0.0137203 0)
(1.08013 0.0131888 0)
(1.07909 0.0126194 0)
(1.07825 0.0120888 0)
(1.07729 0.0115353 0)
(1.07659 0.011049 0)
(1.0757 0.0105583 0)
(1.07514 0.0101623 0)
(1.07428 0.00977997 0)
(1.07385 0.00951077 0)
(1.07298 0.00927074 0)
(1.07263 0.00914434 0)
(1.07167 0.00906223 0)
(1.0714 0.00906678 0)
(1.07028 0.00913912 0)
(1.07005 0.00923394 0)
(1.06871 0.00944349 0)
(1.06855 0.00956666 0)
(1.06693 0.00989102 0)
(1.06685 0.00997629 0)
(1.06495 0.0103945 0)
(1.13349 0.0455559 0)
(1.13077 0.0445831 0)
(1.12812 0.0435242 0)
(1.12555 0.0423851 0)
(1.12306 0.0411737 0)
(1.12067 0.0398986 0)
(1.11839 0.0385701 0)
(1.11621 0.0371994 0)
(1.11415 0.0357992 0)
(1.1122 0.0343821 0)
(1.11037 0.0329621 0)
(1.10866 0.0315524 0)
(1.10706 0.0301671 0)
(1.10557 0.0288184 0)
(1.10419 0.0275192 0)
(1.10289 0.0262789 0)
(1.10169 0.0251082 0)
(1.10055 0.024012 0)
(1.09947 0.0229976 0)
(1.09843 0.0220644 0)
(1.09744 0.0212161 0)
(1.09646 0.0204454 0)
(1.09549 0.019753 0)
(1.09452 0.0191251 0)
(1.09354 0.0185611 0)
(1.09254 0.0180408 0)
(1.09153 0.0175648 0)
(1.09048 0.0171082 0)
(1.08943 0.0166755 0)
(1.08833 0.016238 0)
(1.08727 0.0158079 0)
(1.08614 0.0153537 0)
(1.08508 0.014898 0)
(1.08396 0.0144068 0)
(1.08294 0.0139152 0)
(1.08186 0.0133866 0)
(1.08093 0.0128691 0)
(1.07991 0.0123229 0)
(1.0791 0.0118075 0)
(1.07816 0.0112791 0)
(1.07748 0.0108058 0)
(1.0766 0.0103396 0)
(1.07606 0.0099508 0)
(1.07522 0.00958946 0)
(1.0748 0.00931923 0)
(1.07394 0.00909509 0)
(1.07362 0.00895859 0)
(1.07267 0.00888668 0)
(1.07241 0.00887357 0)
(1.07131 0.00895057 0)
(1.0711 0.00902417 0)
(1.06978 0.00923303 0)
(1.06962 0.00933742 0)
(1.06804 0.00965547 0)
(1.06796 0.00973048 0)
(1.06609 0.0101373 0)
(1.13369 0.0441881 0)
(1.13102 0.0432616 0)
(1.12841 0.0422526 0)
(1.12588 0.041167 0)
(1.12343 0.0400118 0)
(1.12107 0.0387956 0)
(1.11881 0.0375279 0)
(1.11665 0.0362193 0)
(1.1146 0.0348815 0)
(1.11266 0.0335266 0)
(1.11083 0.0321676 0)
(1.10912 0.030817 0)
(1.10751 0.0294879 0)
(1.10601 0.0281918 0)
(1.10461 0.0269409 0)
(1.1033 0.0257442 0)
(1.10207 0.0246116 0)
(1.10091 0.023548 0)
(1.09982 0.0225605 0)
(1.09876 0.0216486 0)
(1.09775 0.020816 0)
(1.09675 0.0200563 0)
(1.09577 0.0193702 0)
(1.09478 0.0187454 0)
(1.0938 0.0181809 0)
(1.0928 0.0176591 0)
(1.09179 0.0171797 0)
(1.09075 0.0167207 0)
(1.08971 0.0162851 0)
(1.08863 0.0158479 0)
(1.08758 0.0154183 0)
(1.08647 0.0149696 0)
(1.08544 0.0145194 0)
(1.08434 0.0140403 0)
(1.08335 0.0135593 0)
(1.08228 0.0130491 0)
(1.08138 0.0125461 0)
(1.08038 0.0120227 0)
(1.07959 0.011523 0)
(1.07866 0.0110195 0)
(1.078 0.0105597 0)
(1.07714 0.0101172 0)
(1.07661 0.00973659 0)
(1.07578 0.00939525 0)
(1.07537 0.00912538 0)
(1.07452 0.00891562 0)
(1.0742 0.00877097 0)
(1.07326 0.00870714 0)
(1.07301 0.00867883 0)
(1.07192 0.00875775 0)
(1.07172 0.00881294 0)
(1.07042 0.009018 0)
(1.07027 0.00910622 0)
(1.06872 0.00941516 0)
(1.06865 0.00948141 0)
(1.0668 0.00987516 0)
(1.13375 0.0427943 0)
(1.13112 0.0419139 0)
(1.12855 0.0409547 0)
(1.12605 0.039922 0)
(1.12363 0.0388229 0)
(1.1213 0.0376651 0)
(1.11906 0.0364578 0)
(1.11691 0.0352108 0)
(1.11487 0.0339351 0)
(1.11294 0.0326421 0)
(1.11112 0.0313439 0)
(1.1094 0.0300522 0)
(1.10778 0.0287794 0)
(1.10627 0.0275361 0)
(1.10485 0.0263339 0)
(1.10352 0.0251813 0)
(1.10227 0.0240876 0)
(1.10108 0.0230576 0)
(1.09996 0.022098 0)
(1.09888 0.0212088 0)
(1.09785 0.0203933 0)
(1.09683 0.0196462 0)
(1.09584 0.018968 0)
(1.09483 0.0183479 0)
(1.09385 0.0177848 0)
(1.09283 0.0172632 0)
(1.09183 0.0167819 0)
(1.09079 0.016322 0)
(1.08976 0.0158847 0)
(1.08869 0.015449 0)
(1.08765 0.0150208 0)
(1.08656 0.0145786 0)
(1.08554 0.0141345 0)
(1.08446 0.0136679 0)
(1.08349 0.0131981 0)
(1.08244 0.0127062 0)
(1.08155 0.0122181 0)
(1.08057 0.0117173 0)
(1.07979 0.0112337 0)
(1.07888 0.0107545 0)
(1.07823 0.010309 0)
(1.07737 0.00988939 0)
(1.07685 0.00951795 0)
(1.07602 0.0091955 0)
(1.07562 0.00892748 0)
(1.07477 0.00873064 0)
(1.07445 0.00857987 0)
(1.07353 0.00852216 0)
(1.07328 0.00848118 0)
(1.0722 0.00855963 0)
(1.072 0.00859911 0)
(1.07072 0.0087978 0)
(1.07058 0.00887219 0)
(1.06905 0.00916984 0)
(1.06898 0.00922856 0)
(1.06717 0.00960798 0)
(1.1337 0.0413733 0)
(1.13111 0.0405388 0)
(1.12858 0.039629 0)
(1.12611 0.038649 0)
(1.12372 0.0376054 0)
(1.12141 0.0365055 0)
(1.11919 0.035358 0)
(1.11707 0.0341721 0)
(1.11504 0.0329582 0)
(1.11311 0.0317266 0)
(1.11128 0.0304889 0)
(1.10955 0.0292559 0)
(1.10793 0.0280392 0)
(1.1064 0.0268489 0)
(1.10496 0.0256957 0)
(1.10361 0.0245877 0)
(1.10233 0.0235336 0)
(1.10112 0.0225382 0)
(1.09998 0.0216077 0)
(1.09887 0.0207424 0)
(1.09781 0.0199456 0)
(1.09677 0.0192127 0)
(1.09575 0.018544 0)
(1.09474 0.0179305 0)
(1.09373 0.0173705 0)
(1.09271 0.0168507 0)
(1.0917 0.0163693 0)
(1.09066 0.01591 0)
(1.08964 0.0154726 0)
(1.08857 0.0150396 0)
(1.08754 0.014614 0)
(1.08646 0.0141789 0)
(1.08546 0.0137418 0)
(1.08439 0.013288 0)
(1.08343 0.01283 0)
(1.0824 0.0123564 0)
(1.08153 0.0118836 0)
(1.08055 0.011405 0)
(1.07978 0.010938 0)
(1.07888 0.0104824 0)
(1.07823 0.0100518 0)
(1.07738 0.00965425 0)
(1.07686 0.00929303 0)
(1.07603 0.00898833 0)
(1.07562 0.00872372 0)
(1.07478 0.00853836 0)
(1.07446 0.00838353 0)
(1.07353 0.00833022 0)
(1.07328 0.00827902 0)
(1.07221 0.008355 0)
(1.07201 0.0083813 0)
(1.07075 0.00857161 0)
(1.07061 0.00863419 0)
(1.06909 0.008919 0)
(1.06903 0.00897113 0)
(1.06724 0.00933533 0)
(1.13359 0.039924 0)
(1.13103 0.0391351 0)
(1.12854 0.0382742 0)
(1.12611 0.0373464 0)
(1.12374 0.0363578 0)
(1.12146 0.0353153 0)
(1.11926 0.0342271 0)
(1.11714 0.0331017 0)
(1.11512 0.0319488 0)
(1.11319 0.0307782 0)
(1.11136 0.0296006 0)
(1.10963 0.028426 0)
(1.10799 0.0272654 0)
(1.10644 0.026128 0)
(1.10499 0.0250241 0)
(1.10361 0.0239611 0)
(1.10231 0.0229473 0)
(1.10107 0.0219874 0)
(1.0999 0.0210871 0)
(1.09876 0.0202471 0)
(1.09767 0.0194704 0)
(1.09661 0.0187533 0)
(1.09557 0.0180961 0)
(1.09453 0.0174909 0)
(1.09352 0.0169358 0)
(1.09248 0.0164197 0)
(1.09147 0.0159398 0)
(1.09042 0.0154828 0)
(1.08939 0.0150467 0)
(1.08833 0.0146177 0)
(1.08731 0.0141959 0)
(1.08624 0.0137687 0)
(1.08524 0.0133396 0)
(1.08418 0.012899 0)
(1.08324 0.0124533 0)
(1.08222 0.0119979 0)
(1.08135 0.0115408 0)
(1.08038 0.0110841 0)
(1.07962 0.0106341 0)
(1.07871 0.0102015 0)
(1.07807 0.00978632 0)
(1.07722 0.00940995 0)
(1.07669 0.00905998 0)
(1.07586 0.00877192 0)
(1.07545 0.00851222 0)
(1.0746 0.00833707 0)
(1.07427 0.00818015 0)
(1.07334 0.00812977 0)
(1.07308 0.00807063 0)
(1.07202 0.00814258 0)
(1.07182 0.00815795 0)
(1.07056 0.00833844 0)
(1.07042 0.00839092 0)
(1.06892 0.00866184 0)
(1.06886 0.00870813 0)
(1.06709 0.00905653 0)
(1.13342 0.0384454 0)
(1.13091 0.0377016 0)
(1.12845 0.0368892 0)
(1.12605 0.036013 0)
(1.12371 0.0350788 0)
(1.12145 0.0340931 0)
(1.11926 0.0330634 0)
(1.11716 0.0319979 0)
(1.11515 0.0309054 0)
(1.11322 0.0297952 0)
(1.11139 0.0286772 0)
(1.10964 0.0275607 0)
(1.10799 0.0264559 0)
(1.10643 0.0253716 0)
(1.10495 0.0243171 0)
(1.10355 0.0232996 0)
(1.10222 0.0223267 0)
(1.10096 0.0214032 0)
(1.09975 0.0205341 0)
(1.09859 0.0197208 0)
(1.09747 0.0189656 0)
(1.09638 0.0182661 0)
(1.09532 0.0176219 0)
(1.09426 0.0170269 0)
(1.09323 0.0164787 0)
(1.09218 0.015968 0)
(1.09115 0.0154916 0)
(1.0901 0.0150385 0)
(1.08907 0.0146053 0)
(1.088 0.0141815 0)
(1.08699 0.0137648 0)
(1.08592 0.0133464 0)
(1.08493 0.0129261 0)
(1.08388 0.012499 0)
(1.08294 0.0120663 0)
(1.08192 0.0116291 0)
(1.08106 0.0111883 0)
(1.0801 0.0107528 0)
(1.07934 0.0103204 0)
(1.07843 0.00990987 0)
(1.07778 0.00951095 0)
(1.07693 0.00915476 0)
(1.0764 0.00881703 0)
(1.07556 0.00854457 0)
(1.07513 0.00829118 0)
(1.07428 0.00812512 0)
(1.07394 0.00796792 0)
(1.07301 0.00791933 0)
(1.07274 0.0078543 0)
(1.07168 0.00792111 0)
(1.07147 0.00792748 0)
(1.07021 0.00809721 0)
(1.07007 0.00814099 0)
(1.06858 0.00839746 0)
(1.06852 0.00843846 0)
(1.06677 0.00877073 0)
(1.13322 0.0369365 0)
(1.13075 0.0362374 0)
(1.12832 0.0354729 0)
(1.12595 0.0346477 0)
(1.12364 0.0337672 0)
(1.12139 0.0328375 0)
(1.11922 0.0318656 0)
(1.11713 0.0308592 0)
(1.11513 0.0298265 0)
(1.1132 0.0287761 0)
(1.11137 0.0277171 0)
(1.10961 0.0266584 0)
(1.10795 0.0256092 0)
(1.10637 0.0245778 0)
(1.10487 0.0235729 0)
(1.10344 0.0226013 0)
(1.10209 0.02167 0)
(1.1008 0.0207836 0)
(1.09957 0.0199469 0)
(1.09837 0.0191615 0)
(1.09723 0.0184294 0)
(1.09611 0.017749 0)
(1.09502 0.0171198 0)
(1.09394 0.0165367 0)
(1.09289 0.0159973 0)
(1.09182 0.015494 0)
(1.09079 0.0150228 0)
(1.08972 0.0145752 0)
(1.08869 0.0141467 0)
(1.08762 0.0137293 0)
(1.0866 0.013319 0)
(1.08554 0.0129103 0)
(1.08455 0.0124998 0)
(1.0835 0.0120867 0)
(1.08257 0.0116676 0)
(1.08156 0.0112484 0)
(1.0807 0.0108243 0)
(1.07974 0.0104097 0)
(1.07897 0.00999528 0)
(1.07806 0.00960616 0)
(1.07741 0.00922403 0)
(1.07655 0.00888715 0)
(1.07601 0.00856255 0)
(1.07516 0.00830474 0)
(1.07472 0.00805894 0)
(1.07385 0.00790105 0)
(1.0735 0.00774518 0)
(1.07256 0.00769753 0)
(1.07228 0.00762837 0)
(1.07122 0.00768933 0)
(1.071 0.00768833 0)
(1.06975 0.00784684 0)
(1.0696 0.00788303 0)
(1.06812 0.00812484 0)
(1.06805 0.00816097 0)
(1.06631 0.00847697 0)
(1.13299 0.0353965 0)
(1.13054 0.0347415 0)
(1.12815 0.0340243 0)
(1.12581 0.0332494 0)
(1.12352 0.0324218 0)
(1.1213 0.0315474 0)
(1.11915 0.0306326 0)
(1.11707 0.0296845 0)
(1.11507 0.0287109 0)
(1.11314 0.0277196 0)
(1.1113 0.0267191 0)
(1.10955 0.0257176 0)
(1.10787 0.0247238 0)
(1.10627 0.0237453 0)
(1.10475 0.0227901 0)
(1.1033 0.0218647 0)
(1.10193 0.0209755 0)
(1.1006 0.0201271 0)
(1.09934 0.0193239 0)
(1.09812 0.0185676 0)
(1.09695 0.0178602 0)
(1.0958 0.0172005 0)
(1.09469 0.016588 0)
(1.09359 0.0160187 0)
(1.09252 0.0154899 0)
(1.09144 0.0149958 0)
(1.09038 0.0145317 0)
(1.08931 0.0140913 0)
(1.08827 0.0136692 0)
(1.0872 0.0132596 0)
(1.08618 0.0128571 0)
(1.08511 0.012459 0)
(1.08413 0.0120593 0)
(1.08308 0.0116604 0)
(1.08215 0.0112557 0)
(1.08114 0.0108545 0)
(1.08028 0.0104476 0)
(1.07932 0.0100534 0)
(1.07855 0.00965738 0)
(1.07764 0.00928896 0)
(1.07698 0.00892417 0)
(1.0761 0.00860577 0)
(1.07555 0.00829508 0)
(1.07469 0.00805112 0)
(1.07424 0.00781398 0)
(1.07336 0.00766356 0)
(1.07299 0.00751038 0)
(1.07204 0.00746314 0)
(1.07175 0.00739133 0)
(1.07067 0.00744611 0)
(1.07045 0.00743906 0)
(1.06919 0.00758624 0)
(1.06904 0.00761573 0)
(1.06756 0.00784294 0)
(1.06749 0.00787454 0)
(1.06577 0.00817425 0)
(1.13271 0.0338249 0)
(1.13031 0.0332132 0)
(1.12794 0.0325426 0)
(1.12563 0.0318172 0)
(1.12337 0.0310418 0)
(1.12117 0.0302218 0)
(1.11903 0.0293633 0)
(1.11696 0.0284727 0)
(1.11497 0.0275574 0)
(1.11305 0.0266245 0)
(1.11121 0.0256819 0)
(1.10944 0.0247373 0)
(1.10775 0.0237985 0)
(1.10614 0.0228727 0)
(1.1046 0.0219673 0)
(1.10313 0.0210884 0)
(1.10173 0.020242 0)
(1.10038 0.0194324 0)
(1.09909 0.0186636 0)
(1.09785 0.0179377 0)
(1.09665 0.0172563 0)
(1.09547 0.016619 0)
(1.09434 0.016025 0)
(1.09321 0.0154713 0)
(1.09212 0.0149552 0)
(1.09102 0.014472 0)
(1.08995 0.014017 0)
(1.08887 0.0135855 0)
(1.08782 0.0131714 0)
(1.08674 0.012771 0)
(1.08572 0.0123778 0)
(1.08465 0.011991 0)
(1.08367 0.0116032 0)
(1.08262 0.0112191 0)
(1.08169 0.0108294 0)
(1.08068 0.0104461 0)
(1.07982 0.0100569 0)
(1.07885 0.0096827 0)
(1.07808 0.00930546 0)
(1.07716 0.00895712 0)
(1.07649 0.0086101 0)
(1.07561 0.00830949 0)
(1.07504 0.00801332 0)
(1.07417 0.00778258 0)
(1.07371 0.00755499 0)
(1.07281 0.00741156 0)
(1.07243 0.00726219 0)
(1.07147 0.00721509 0)
(1.07116 0.00714184 0)
(1.07008 0.00719041 0)
(1.06984 0.00717838 0)
(1.06858 0.00731438 0)
(1.06842 0.0073379 0)
(1.06694 0.00755074 0)
(1.06687 0.00757811 0)
(1.06515 0.00786159 0)
(1.1324 0.0322209 0)
(1.13003 0.0316519 0)
(1.1277 0.031027 0)
(1.12541 0.0303503 0)
(1.12318 0.0296263 0)
(1.121 0.0288598 0)
(1.11888 0.0280567 0)
(1.11682 0.0272228 0)
(1.11484 0.0263649 0)
(1.11292 0.0254898 0)
(1.11107 0.0246045 0)
(1.1093 0.0237162 0)
(1.1076 0.0228321 0)
(1.10598 0.0219589 0)
(1.10442 0.0211035 0)
(1.10293 0.0202714 0)
(1.1015 0.0194682 0)
(1.10013 0.0186982 0)
(1.09882 0.0179649 0)
(1.09754 0.0172706 0)
(1.09632 0.0166167 0)
(1.09512 0.0160033 0)
(1.09396 0.0154295 0)
(1.09281 0.0148933 0)
(1.0917 0.0143917 0)
(1.09058 0.0139213 0)
(1.0895 0.0134774 0)
(1.0884 0.0130564 0)
(1.08735 0.012652 0)
(1.08626 0.0122622 0)
(1.08524 0.0118796 0)
(1.08417 0.0115052 0)
(1.08318 0.0111304 0)
(1.08213 0.0107614 0)
(1.0812 0.0103876 0)
(1.08019 0.0100222 0)
(1.07932 0.00965112 0)
(1.07836 0.00929657 0)
(1.07758 0.00893844 0)
(1.07665 0.00860967 0)
(1.07598 0.00828074 0)
(1.07508 0.00799735 0)
(1.0745 0.00771619 0)
(1.07362 0.00749818 0)
(1.07314 0.00728084 0)
(1.07223 0.00714412 0)
(1.07183 0.00699946 0)
(1.07085 0.00695246 0)
(1.07053 0.00687875 0)
(1.06944 0.00692129 0)
(1.06919 0.00690517 0)
(1.06792 0.00703033 0)
(1.06776 0.00704849 0)
(1.06628 0.00724728 0)
(1.0662 0.00727072 0)
(1.06448 0.00753805 0)
(1.13206 0.030584 0)
(1.12972 0.0300568 0)
(1.12742 0.0294769 0)
(1.12516 0.028848 0)
(1.12295 0.0281743 0)
(1.12079 0.0274605 0)
(1.11869 0.0267118 0)
(1.11664 0.0259338 0)
(1.11466 0.0251326 0)
(1.11275 0.0243144 0)
(1.1109 0.0234858 0)
(1.10913 0.0226533 0)
(1.10742 0.0218236 0)
(1.10578 0.021003 0)
(1.10421 0.0201974 0)
(1.10269 0.0194125 0)
(1.10125 0.0186531 0)
(1.09985 0.0179233 0)
(1.09851 0.0172265 0)
(1.09721 0.016565 0)
(1.09596 0.0159401 0)
(1.09474 0.0153522 0)
(1.09356 0.0148004 0)
(1.09239 0.0142834 0)
(1.09126 0.0137982 0)
(1.09013 0.0133425 0)
(1.08903 0.0129115 0)
(1.08792 0.0125027 0)
(1.08686 0.0121099 0)
(1.08577 0.0117321 0)
(1.08473 0.0113615 0)
(1.08366 0.0110004 0)
(1.08267 0.0106397 0)
(1.08162 0.0102863 0)
(1.08069 0.00992904 0)
(1.07967 0.00958169 0)
(1.07881 0.00922922 0)
(1.07783 0.00889411 0)
(1.07705 0.00855535 0)
(1.07612 0.00824574 0)
(1.07543 0.00793515 0)
(1.07452 0.00766854 0)
(1.07393 0.00740275 0)
(1.07304 0.00719714 0)
(1.07254 0.00699059 0)
(1.07162 0.00686046 0)
(1.0712 0.00672121 0)
(1.07021 0.00667444 0)
(1.06988 0.00660108 0)
(1.06877 0.00663792 0)
(1.06851 0.00661848 0)
(1.06724 0.00673323 0)
(1.06706 0.00674659 0)
(1.06558 0.00693169 0)
(1.0655 0.00695147 0)
(1.06378 0.00720276 0)
(1.13167 0.0289135 0)
(1.12937 0.0284272 0)
(1.1271 0.0278913 0)
(1.12487 0.0273093 0)
(1.12268 0.0266851 0)
(1.12054 0.026023 0)
(1.11846 0.0253279 0)
(1.11643 0.0246048 0)
(1.11445 0.0238594 0)
(1.11254 0.0230974 0)
(1.1107 0.0223249 0)
(1.10892 0.0215477 0)
(1.1072 0.0207721 0)
(1.10555 0.0200037 0)
(1.10396 0.0192482 0)
(1.10243 0.0185106 0)
(1.10096 0.0177955 0)
(1.09955 0.0171068 0)
(1.09819 0.0164475 0)
(1.09686 0.01582 0)
(1.09559 0.0152254 0)
(1.09435 0.0146645 0)
(1.09314 0.0141364 0)
(1.09195 0.0136404 0)
(1.0908 0.0131736 0)
(1.08965 0.0127345 0)
(1.08855 0.0123182 0)
(1.08742 0.0119235 0)
(1.08635 0.0115439 0)
(1.08525 0.0111794 0)
(1.08421 0.0108224 0)
(1.08314 0.0104757 0)
(1.08214 0.01013 0)
(1.08109 0.00979298 0)
(1.08015 0.00945289 0)
(1.07914 0.00912377 0)
(1.07827 0.00879028 0)
(1.07729 0.0084745 0)
(1.0765 0.00815533 0)
(1.07556 0.00786457 0)
(1.07486 0.0075725 0)
(1.07395 0.00732235 0)
(1.07334 0.00707217 0)
(1.07243 0.00687877 0)
(1.07192 0.00668341 0)
(1.07098 0.00655988 0)
(1.07056 0.00642663 0)
(1.06955 0.00638034 0)
(1.0692 0.006308 0)
(1.06808 0.00633959 0)
(1.06781 0.00631747 0)
(1.06653 0.0064223 0)
(1.06635 0.00643139 0)
(1.06486 0.00660316 0)
(1.06478 0.00661958 0)
(1.06305 0.00685492 0)
(1.13126 0.0272087 0)
(1.12899 0.0267624 0)
(1.12675 0.0262695 0)
(1.12455 0.0257335 0)
(1.12238 0.0251578 0)
(1.12026 0.0245464 0)
(1.11819 0.0239039 0)
(1.11617 0.0232348 0)
(1.11421 0.0225444 0)
(1.1123 0.0218379 0)
(1.11046 0.0211207 0)
(1.10867 0.0203984 0)
(1.10695 0.0196765 0)
(1.10529 0.0189603 0)
(1.10369 0.0182548 0)
(1.10214 0.0175649 0)
(1.10066 0.0168946 0)
(1.09922 0.0162476 0)
(1.09784 0.0156268 0)
(1.09649 0.0150344 0)
(1.0952 0.0144716 0)
(1.09393 0.0139393 0)
(1.09271 0.0134366 0)
(1.0915 0.0129634 0)
(1.09033 0.0125168 0)
(1.08917 0.012096 0)
(1.08804 0.0116965 0)
(1.08691 0.0113174 0)
(1.08583 0.0109528 0)
(1.08472 0.0106032 0)
(1.08368 0.0102611 0)
(1.0826 0.00992988 0)
(1.0816 0.00960038 0)
(1.08055 0.00928032 0)
(1.0796 0.00895814 0)
(1.07859 0.00864754 0)
(1.07771 0.00833342 0)
(1.07673 0.00803694 0)
(1.07594 0.00773756 0)
(1.07499 0.00746546 0)
(1.07428 0.00719203 0)
(1.07335 0.00695814 0)
(1.07274 0.00672374 0)
(1.07181 0.00654247 0)
(1.07129 0.0063586 0)
(1.07033 0.0062418 0)
(1.0699 0.00611501 0)
(1.06887 0.00606954 0)
(1.06851 0.00599881 0)
(1.06738 0.00602562 0)
(1.0671 0.00600144 0)
(1.06581 0.00609684 0)
(1.06562 0.00610217 0)
(1.06413 0.00626096 0)
(1.06404 0.00627433 0)
(1.06231 0.0064938 0)
(1.13081 0.0254689 0)
(1.12857 0.0250614 0)
(1.12637 0.0246106 0)
(1.12419 0.0241194 0)
(1.12205 0.0235912 0)
(1.11995 0.0230296 0)
(1.1179 0.0224387 0)
(1.11589 0.0218228 0)
(1.11393 0.0211865 0)
(1.11203 0.0205347 0)
(1.11019 0.0198723 0)
(1.1084 0.0192043 0)
(1.10667 0.0185358 0)
(1.105 0.0178716 0)
(1.10339 0.0172163 0)
(1.10183 0.0165743 0)
(1.10033 0.0159493 0)
(1.09887 0.0153448 0)
(1.09747 0.0147634 0)
(1.09611 0.0142073 0)
(1.09479 0.0136776 0)
(1.0935 0.0131754 0)
(1.09226 0.0126999 0)
(1.09103 0.0122511 0)
(1.08985 0.0118267 0)
(1.08867 0.0114261 0)
(1.08753 0.0110451 0)
(1.08639 0.0106835 0)
(1.0853 0.0103355 0)
(1.08418 0.0100023 0)
(1.08313 0.00967658 0)
(1.08205 0.00936201 0)
(1.08104 0.00904977 0)
(1.07999 0.00874741 0)
(1.07904 0.00844387 0)
(1.07802 0.00815215 0)
(1.07714 0.00785778 0)
(1.07616 0.00758069 0)
(1.07536 0.00730126 0)
(1.0744 0.00704775 0)
(1.07368 0.00679304 0)
(1.07275 0.0065753 0)
(1.07212 0.00635681 0)
(1.07118 0.00618766 0)
(1.07065 0.00601555 0)
(1.06968 0.00590566 0)
(1.06922 0.00578575 0)
(1.06819 0.00574147 0)
(1.06782 0.0056729 0)
(1.06667 0.00569542 0)
(1.06638 0.00566976 0)
(1.06508 0.0057562 0)
(1.06489 0.00575829 0)
(1.06339 0.00590441 0)
(1.0633 0.00591504 0)
(1.06157 0.00611871 0)
(1.13034 0.0236929 0)
(1.12814 0.0233232 0)
(1.12596 0.0229134 0)
(1.12381 0.0224661 0)
(1.12169 0.0219843 0)
(1.11961 0.0214715 0)
(1.11757 0.0209313 0)
(1.11558 0.0203676 0)
(1.11363 0.0197846 0)
(1.11173 0.0191868 0)
(1.10989 0.0185786 0)
(1.1081 0.0179645 0)
(1.10637 0.0173491 0)
(1.10469 0.0167367 0)
(1.10307 0.0161317 0)
(1.10149 0.0155378 0)
(1.09998 0.0149587 0)
(1.09851 0.0143974 0)
(1.09709 0.0138564 0)
(1.0957 0.0133377 0)
(1.09437 0.0128425 0)
(1.09306 0.0123719 0)
(1.0918 0.0119252 0)
(1.09056 0.0115027 0)
(1.08936 0.0111022 0)