/*--------------------------------*- C++ -*----------------------------------*\
  =========                 |
  \\      /  F ield         | OpenFOAM: The Open Source CFD Toolbox
   \\    /   O peration     | Website:  https://openfoam.org
    \\  /    A nd           | Version:  7
     \\/     M anipulation  |
\*---------------------------------------------------------------------------*/
FoamFile
{
    version     2.0;
    format      ascii;
    class       surfaceScalarField;
    location    "175";
    object      phi;
}
// * * * * * * * * * * * * * * * * * * * * * * * * * * * * * * * * * * * * * //

dimensions      [0 3 -1 0 0 0 0];

internalField   nonuniform List<scalar> 
3855
(
-2.29019e-06
5.56968e-05
-5.34066e-05
-8.67079e-06
0.000165537
-0.000159156
-1.91052e-05
0.000276523
-0.000266089
-3.36071e-05
0.00038499
-0.000370488
-5.21217e-05
0.000488236
-0.000469721
-7.44485e-05
0.000585116
-0.000562789
-0.00010021
0.000676163
-0.000650401
-0.000128868
0.000763379
-0.000734722
-0.000159761
0.000849677
-0.000192162
0.000938162
-0.000225307
0.00103145
-0.000258395
0.00113114
-0.000290546
0.00123757
-0.000320738
0.00134959
-0.000347715
0.00146455
-0.000369914
0.00157812
-0.000385408
0.00168406
-0.000391886
0.00177406
-0.000386715
0.00183752
-0.000367073
0.00186159
-0.000330181
0.00183163
-0.000273589
0.00173195
-0.000195134
0.00154701
-9.37353e-05
0.00126469
0.000873234
3.25167e-05
-1.65635e-06
5.73531e-05
-6.44603e-06
0.000170326
-1.4523e-05
0.0002846
-2.60628e-05
0.00039653
-4.11404e-05
0.000503313
-5.96447e-05
0.00060362
-8.12388e-05
0.000697757
-0.00010537
0.00078751
-0.000131314
0.00087562
-0.00015823
0.000965079
-0.000185212
0.00105843
-0.000211291
0.00115722
-0.000235416
0.00126169
-0.000256389
0.00137056
-0.000272792
0.00148096
-0.000282928
0.00158825
-0.000284777
0.00168591
-0.000276017
0.0017653
-0.000254117
0.00181562
-0.0002165
0.00182398
-0.000160797
0.00177593
-8.51901e-05
0.00165634
1.17455e-05
0.00145008
0.000130951
0.00114549
0.000729643
0.000274542
-1.02285e-06
5.8376e-05
-4.20395e-06
0.000173507
-9.86956e-06
0.000290266
-1.83422e-05
0.000405003
-2.98188e-05
0.00051479
-4.42759e-05
0.000618077
-6.14208e-05
0.000714902
-8.0693e-05
0.000806782
-0.000101308
0.000896236
-0.00012232
0.000986091
-0.000142674
0.00107878
-0.000161234
0.00117578
-0.000176771
0.00127723
-0.000187912
0.0013817
-0.000193088
0.00148613
-0.00019048
0.00158564
-0.000178007
0.00167344
-0.00015337
0.00174066
-0.000114181
0.00177643
-5.81501e-05
0.00176795
1.66659e-05
0.00170111
0.000111653
0.00156135
0.000227734
0.00133399
0.000364105
0.00100911
0.000569306
0.000524442
-4.03487e-07
5.87795e-05
-1.98998e-06
0.000175094
-5.23478e-06
0.000293511
-1.05877e-05
0.000410356
-1.83556e-05
0.000522558
-2.85985e-05
0.00062832
-4.10706e-05
0.000727374
-5.52117e-05
0.000820923
-7.01861e-05
0.00091121
-8.49473e-05
0.00100085
-9.83012e-05
0.00109214
-0.000108947
0.00118643
-0.000115477
0.00128376
-0.000116355
0.00138258
-0.000109866
0.00147964
-9.40929e-05
0.00156987
-6.69227e-05
0.00164627
-2.61189e-05
0.00169986
3.05674e-05
0.00171974
0.000105136
0.00169338
0.000199154
0.00160709
0.000313288
0.00144722
0.00044818
0.0011991
0.000601853
0.000855442
0.000392635
0.000778524
1.9016e-07
5.85893e-05
1.51194e-07
0.000175133
-7.0799e-07
0.00029437
-2.94427e-06
0.000412592
-6.95659e-06
0.00052657
-1.28815e-05
0.000634245
-2.05218e-05
0.000735014
-2.93256e-05
0.000829727
-3.8418e-05
0.000920302
-4.66646e-05
0.0010091
-5.27428e-05
0.00109822
-5.51951e-05
0.00118888
-5.24483e-05
0.00128101
-4.28093e-05
0.00137294
-2.44375e-05
0.00146127
4.66208e-06
0.00154077
4.6611e-05
0.00160432
0.000103572
0.0016429
0.000177589
0.00164572
0.000270372
0.0016006
0.000383139
0.00149433
0.000516003
0.00131435
0.000669338
0.00104577
0.000839974
0.000684805
0.000200293
0.00103232
7.4316e-07
5.78462e-05
2.17658e-06
0.000173699
3.62024e-06
0.000292926
4.44296e-06
0.000411769
4.17017e-06
0.000526843
2.59913e-06
0.000635816
-1.20374e-07
0.000737734
-3.45369e-06
0.00083306
-6.49986e-06
0.000923349
-8.05289e-06
0.00101065
-6.67777e-06
0.00109684
-7.759e-07
0.00118298
1.13702e-05
0.00126887
3.16005e-05
0.00135271
6.18608e-05
0.00143101
0.0001042
0.00149843
0.000160721
0.0015478
0.000233479
0.00157014
0.000324325
0.00155488
0.000434663
0.00149026
0.0005654
0.00136359
0.000716119
0.00116364
0.000887087
0.0008748
0.00107408
0.000497812
-7.75921e-06
0.00128213
1.24685e-06
5.65993e-05
4.04733e-06
0.000170899
7.66952e-06
0.000289304
1.14351e-05
0.000408004
1.48187e-05
0.000523459
1.75648e-05
0.00063307
1.9778e-05
0.00073552
2.19704e-05
0.000830868
2.50535e-05
0.000920266
3.02843e-05
0.00100542
3.9188e-05
0.00108794
5.34809e-05
0.00116869
7.50158e-05
0.00124733
0.000105744
0.00132198
0.000147697
0.00138906
0.000202954
0.00144317
0.000273577
0.00147717
0.000361492
0.00148223
0.000468344
0.00144802
0.000595231
0.00136337
0.000742785
0.00121604
0.000910112
0.000996308
0.00109751
0.0006874
0.0012999
0.000295429
-0.000231408
0.00152354
1.69139e-06
5.49079e-05
5.72816e-06
0.000166862
1.13621e-05
0.00028367
1.78998e-05
0.000401466
2.47904e-05
0.000516569
3.17423e-05
0.000626118
3.88212e-05
0.000728442
4.65108e-05
0.000823178
5.57188e-05
0.000911058
6.77324e-05
0.000993407
8.41417e-05
0.00107153
0.000106755
0.00114607
0.000137527
0.00121656
0.000178501
0.00128101
0.000231768
0.00133579
0.000299413
0.00137553
0.00038343
0.00139316
0.000485603
0.00138005
0.000607362
0.00132627
0.000749507
0.00122122
0.000912419
0.00105312
0.00109484
0.00081389
0.00129721
0.000485024
0.00151387
7.87753e-05
-0.000470758
0.00175322
2.06904e-06
5.28389e-05
7.18862e-06
0.000161743
1.46296e-05
0.000276229
2.37159e-05
0.00039238
3.38984e-05
0.000506386
4.48688e-05
0.000615147
5.66628e-05
0.000716648
6.97335e-05
0.000810108
8.49718e-05
0.000895819
0.000103673
0.000974706
0.000127464
0.00104774
0.000158215
0.00111532
0.000197952
0.00117682
0.00024878
0.00123018
0.000312822
0.00127175
0.000392141
0.00129621
0.000488648
0.00129665
0.000603967
0.00126473
0.000739315
0.00119092
0.000895219
0.00106532
0.00107184
0.000876503
0.00126773
0.000618
0.00148361
0.000269147
0.00171363
-0.000151245
-0.000726353
0.00196922
2.37375e-06
5.04651e-05
8.40367e-06
0.000155713
1.74136e-05
0.000267219
2.87765e-05
0.000381017
4.19732e-05
0.00049319
5.66997e-05
0.000600421
7.29741e-05
0.000700373
9.12197e-05
0.000791862
0.0001123
0.000874739
0.000137497
0.000949509
0.000168447
0.00101679
0.000207049
0.00107672
0.000255365
0.00112851
0.000315533
0.00117001
0.000389674
0.00119761
0.000479809
0.00120608
0.000587744
0.00118871
0.000714944
0.00113753
0.000862422
0.00104344
0.00103049
0.000897252
0.00121914
0.000687854
0.00142702
0.000410116
0.00165533
4.08446e-05
0.00189831
-0.000394234
-0.000999482
0.00217144
2.60117e-06
4.7864e-05
9.35402e-06
0.00014896
1.96669e-05
0.000256906
3.29919e-05
0.000367692
4.88672e-05
0.000477314
6.7016e-05
0.000582272
8.74532e-05
0.000679936
0.000110577
0.000768739
0.000137214
0.000848101
0.000168619
0.000918105
0.000206407
0.000978998
0.000252473
0.00103066
0.000308884
0.0010721
0.000377771
0.00110113
0.00046123
0.00111415
0.000561213
0.00110609
0.000679418
0.00107051
0.000817151
0.0009998
0.00097526
0.00088533
0.00115395
0.000718563
0.00135312
0.000488681
0.00157189
0.000191345
0.00181227
-0.000199531
0.00206904
-0.000651008
-0.00129219
0.00236175
2.74863e-06
4.51153e-05
1.00264e-05
0.000141682
2.13547e-05
0.000245578
3.6292e-05
0.000352754
5.44601e-05
0.000459146
7.56319e-05
0.0005611
9.98357e-05
0.000655732
0.000127451
0.000741123
0.000159269
0.000816284
0.000196494
0.000880879
0.000240703
0.000934789
0.000293755
0.000977603
0.000357685
0.00100817
0.000434589
0.00102422
0.000526508
0.00102223
0.000635314
0.000997287
0.000762593
0.000943231
0.00090953
0.000852863
0.00107687
0.000717993
0.00126488
0.000530555
0.00147353
0.000280027
0.00170298
-3.81081e-05
0.00195583
-0.00045238
0.00222879
-0.000923964
-0.00160712
0.00254371
2.81505e-06
4.23003e-05
1.04137e-05
0.000134083
2.24552e-05
0.000233537
3.86286e-05
0.000336581
5.86627e-05
0.000439112
8.24021e-05
0.000537361
0.000109906
0.000628229
0.000141545
0.000709484
0.000178074
0.000779756
0.000220642
0.000838311
0.000270763
0.000884667
0.000330237
0.00091813
0.000401037
0.000937366
0.000485196
0.000940064
0.000584684
0.000922741
0.000701284
0.000880686
0.000836497
0.000808018
0.00099145
0.00069791
0.0011669
0.000542546
0.00136341
0.000334041
0.00158129
6.21491e-05
0.00182225
-0.000279068
0.00208936
-0.000719493
0.00238221
-0.00121681
-0.00194668
0.00272177
2.80093e-06
3.94994e-05
1.05148e-05
0.00012637
2.29604e-05
0.000221091
3.99774e-05
0.000319564
6.14217e-05
0.000417668
8.72291e-05
0.000511553
0.000117507
0.000597951
0.000152631
0.000674359
0.000193322
0.000739065
0.00024067
0.000790963
0.000296116
0.000829221
0.000361377
0.00085287
0.000438345
0.000860397
0.000528974
0.000849436
0.000635152
0.000816563
0.000758598
0.00075724
0.000900777
0.000665839
0.00106287
0.000535816
0.00124582
0.000359594
0.0014508
0.000129069
0.00167877
-0.000165823
0.00193337
-0.00053367
0.00221774
-0.00100387
0.00253487
-0.00153394
-0.00231187
0.00290006
2.70825e-06
3.67911e-05
1.03353e-05
0.000118742
2.2877e-05
0.000208549
4.03397e-05
0.000302101
6.27227e-05
0.000395285
9.00703e-05
0.000484206
0.000122554
0.000565467
0.000160569
0.000636345
0.000204809
0.000694824
0.00025631
0.000739462
0.00031643
0.000769101
0.000386797
0.000782502
0.000469214
0.00077798
0.00056555
0.000753099
0.000677634
0.000704479
0.000807165
0.000627709
0.00095567
0.000517334
0.00112455
0.000366932
0.00131519
0.000168955
0.00152966
-8.54017e-05
0.00176986
-0.000406021
0.0020415
-0.000805309
0.00234687
-0.00130924
0.002692
-0.00187907
-0.0027008
0.00308093
2.54058e-06
3.42505e-05
9.88709e-06
0.000111396
2.22267e-05
0.00019621
3.97442e-05
0.000284584
6.25949e-05
0.000372434
9.09448e-05
0.000455856
0.000125045
0.000531367
0.000165323
0.000596067
0.000212463
0.000647685
0.000267448
0.000684477
0.000331563
0.000704985
0.000406351
0.000707715
0.000493532
0.0006908
0.000594915
0.000651716
0.000712316
0.000587078
0.000847505
0.000492521
0.00100222
0.000362619
0.0011783
0.000190849
0.00137785
-3.05878e-05
0.00160405
-0.000311608
0.00185991
-0.000661874
0.00215262
-0.00109802
0.00248243
-0.00163905
0.00285678
-0.00225342
-0.00310777
0.00326375
2.30316e-06
3.19474e-05
9.1889e-06
0.00010451
2.1047e-05
0.000184352
3.82488e-05
0.000267382
6.11136e-05
0.000349569
8.99399e-05
0.00042703
0.000125072
0.000496235
0.000166985
0.000554154
0.000216367
0.000598302
0.00027417
0.000626674
0.000341621
0.000637534
0.000420198
0.000629138
0.000511573
0.000599425
0.000617547
0.000545741
0.000740012
0.000464613
0.000880944
0.000351589
0.00104248
0.000201078
0.00122714
6.19138e-06
0.00143796
-0.000241401
0.00167927
-0.00055292
0.00195495
-0.000937554
0.00227236
-0.00141543
0.0026283
-0.00199499
0.00302893
-0.00265404
-0.00352321
0.00344437
2.00306e-06
2.99443e-05
8.26691e-06
9.82464e-05
1.93924e-05
0.000173226
3.5942e-05
0.000250833
5.84038e-05
0.000327107
8.72166e-05
0.000398217
0.000122829
0.000460622
0.000165784
0.000511199
0.000216793
0.000547293
0.000276802
0.000566665
0.000347015
0.000567321
0.000428887
0.000547266
0.000524103
0.000504209
0.000634549
0.000435294
0.000762318
0.000336845
0.000909765
0.000204142
0.00107963
3.12132e-05
0.00127529
-0.000189473
0.00150075
-0.000466862
0.00176118
-0.000813344
0.00206059
-0.00123697
0.00240448
-0.00175932
0.00278496
-0.00237547
0.00320399
-0.00307307
-0.00393483
0.00361561
1.64941e-06
2.82949e-05
7.15508e-06
9.27407e-05
1.73348e-05
0.000163046
3.2944e-05
0.000235223
5.46422e-05
0.000305409
8.30143e-05
0.000369845
0.000118627
0.00042501
0.000162106
0.00046772
0.00021422
0.000495179
0.000275945
0.000504939
0.000348512
0.000494755
0.000433424
0.000462354
0.00053247
0.000405163
0.000647745
0.000320019
0.0007817
0.00020289
0.000937241
4.86014e-05
0.00111787
-0.000149414
0.00132781
-0.00039942
0.00157183
-0.00071088
0.00185508
-0.00109659
0.00218049
-0.00156238
0.00254943
-0.00212826
0.00294868
-0.00277472
0.00337398
-0.00349838
-0.00432972
0.00376887
1.25364e-06
2.70413e-05
5.89553e-06
8.80988e-05
1.49639e-05
0.000153978
2.94074e-05
0.00022078
5.00579e-05
0.000284759
7.76525e-05
0.00034225
0.000112889
0.000389774
0.000156503
0.000424106
0.000209353
0.000442329
0.0002725
0.000441792
0.000347271
0.000419983
0.000435313
0.000374313
0.000538638
0.000301838
0.000659692
0.000198965
0.000801437
6.11452e-05
0.000967454
-0.000117416
0.00116199
-0.000343954
0.00138991
-0.000627338
0.00165605
-0.000977017
0.00196431
-0.00140485
0.00231505
-0.00191312
0.00270362
-0.00251683
0.00311194
-0.00318303
0.00352915
-0.00391559
-0.00469662
0.00389604
8.29547e-07
2.62117e-05
4.53853e-06
8.43898e-05
1.23872e-05
0.000146129
2.55162e-05
0.000207651
4.49311e-05
0.000265344
7.15287e-05
0.000315652
0.000106155
0.000355147
0.000149686
0.000380575
0.000203119
0.000388897
0.000267665
0.000377246
0.000344838
0.000342811
0.000436537
0.000282614
0.000545132
0.000193243
0.000673553
7.0544e-05
0.000825372
-9.06737e-05
0.00100483
-0.000296876
0.00121671
-0.000555833
0.00146589
-0.000876521
0.0017563
-0.00126742
0.00208914
-0.0017377
0.00246078
-0.00228476
0.00285986
-0.00291591
0.00326501
-0.00358818
0.00366022
-0.0043108
-0.00502768
0.00399129
3.93238e-07
2.58185e-05
3.14192e-06
8.16411e-05
9.7278e-06
0.000139543
2.14824e-05
0.000195896
3.95876e-05
0.000247238
6.5111e-05
0.000290129
9.90697e-05
0.000321188
0.000142518
0.000337127
0.000196649
0.000334766
0.000262904
0.000310991
0.000343083
0.000262631
0.000439458
0.000186239
0.000554869
7.78312e-05
0.000692813
-6.73995e-05
0.000857452
-0.000255312
0.00105348
-0.000492906
0.0012857
-0.000788054
0.00155813
-0.00114895
0.00187254
-0.00158183
0.00222621
-0.00209136
0.00261073
-0.00266928
0.00300879
-0.00331397
0.00339823
-0.00397762
0.00376041
-0.00467299
-0.00531925
0.00405198
-3.70154e-08
2.58555e-05
1.76964e-06
7.98345e-05
7.1213e-06
0.000134192
1.75398e-05
0.000185478
3.43892e-05
0.000230389
5.89226e-05
0.000265596
9.23575e-05
0.000287753
0.000135972
0.000293512
0.000191223
0.000279516
0.000259865
0.000242349
0.000344087
0.000178408
0.000446628
8.36983e-05
0.000570867
-4.64071e-05
0.000720841
-0.000217374
0.00090112
-0.000435591
0.00111641
-0.000708197
0.00137077
-0.00104242
0.0016663
-0.00144448
0.0020015
-0.00191703
0.00236899
-0.00245885
0.00275589
-0.00305618
0.00314096
-0.00369904
0.00350398
-0.00434063
0.00382638
-0.00499539
-0.00557163
0.00407875
-4.42265e-07
2.62977e-05
4.89517e-07
7.89027e-05
4.71088e-06
0.00012997
1.39355e-05
0.000176253
2.97184e-05
0.000214606
5.35191e-05
0.000241795
8.67897e-05
0.000254483
0.000131086
0.000249216
0.000188192
0.000222409
0.000260264
0.000170277
0.000349955
8.87177e-05
0.000460523
-2.68694e-05
0.00059586
-0.000181745
0.000760386
-0.0003819
0.000958696
-0.000633901
0.00119486
-0.00094436
0.00147129
-0.00131885
0.00178718
-0.00176037
0.00213706
-0.00226691
0.00250907
-0.00283086
0.00288709
-0.00343421
0.00324874
-0.00406069
0.00357795
-0.00466984
0.00385824
-0.00527568
-0.00578817
0.00407479
-8.02187e-07
2.70999e-05
-6.29591e-07
7.87301e-05
2.64023e-06
0.000126701
1.09172e-05
0.000167976
2.59594e-05
0.000199564
4.94574e-05
0.000218297
8.31374e-05
0.000220803
0.000128884
0.00020347
0.000188877
0.000162416
0.000265728
9.34258e-05
0.000362597
-8.15147e-06
0.000483238
-0.00014751
0.000631916
-0.000330423
0.000813112
-0.000563095
0.0010309
-0.000851689
0.00128794
-0.0012014
0.00158416
-0.00161506
0.00191517
-0.00209138
0.0022715
-0.00262324
0.00263784
-0.0031972
0.00299676
-0.00379313
0.00332743
-0.00439136
0.00361926
-0.00496167
0.00385879
-0.00551521
-0.00597416
0.00404478
-1.09825e-06
2.81982e-05
-1.52462e-06
7.91565e-05
1.04514e-06
0.000124131
8.71919e-06
0.000160302
2.34743e-05
0.000184809
4.72605e-05
0.000194511
8.21169e-05
0.000185946
0.000130305
0.000155282
0.000194444
9.82767e-05
0.000277633
1.02367e-05
0.000383513
-0.000114031
0.000516215
-0.000280212
0.000680114
-0.000494322
0.000879292
-0.000762274
0.00111666
-0.00108905
0.00139272
-0.00147747
0.00170428
-0.00192662
0.00204328
-0.00243037
0.00239687
-0.00297683
0.002748
-0.00354833
0.00307998
-0.00412511
0.00337554
-0.00468692
0.00362983
-0.00521595
0.00383243
-0.00571782
-0.00613562
0.00399389
-1.31373e-06
2.95119e-05
-2.13698e-06
7.99797e-05
4.79114e-08
0.000121946
7.5474e-06
0.000152803
2.25799e-05
0.000169776
4.73805e-05
0.00016971
8.43355e-05
0.000148991
0.000136117
0.000103501
0.000205804
2.85899e-05
0.000296959
-8.0919e-05
0.000413609
-0.000230681
0.000560045
-0.000426648
0.000740373
-0.00067465
0.000957739
-0.000979639
0.00121324
-0.00134455
0.00150465
-0.00176889
0.00182544
-0.00224741
0.00216432
-0.00276925
0.00250634
-0.00331885
0.0028346
-0.00387658
0.00313475
-0.00442526
0.00339426
-0.00494643
0.00361336
-0.00543506
0.00378412
-0.00588857
-0.00627844
0.00392694
-1.43564e-06
3.09476e-05
-2.42233e-06
8.09664e-05
-2.58662e-07
0.000119782
7.56493e-06
0.000144979
2.35251e-05
0.000153816
5.01657e-05
0.00014307
9.02443e-05
0.000108913
0.000146856
4.68888e-05
0.000223522
-4.80758e-05
0.000324192
-0.000181589
0.000453102
-0.000359591
0.000614399
-0.000587945
0.000811472
-0.000871723
0.00104597
-0.00121414
0.00131665
-0.00161523
0.0016183
-0.00207054
0.00194127
-0.00257039
0.00227204
-0.00310002
0.00259506
-0.00364188
0.00289529
-0.00417681
0.0031617
-0.00469167
0.00338671
-0.00517144
0.00357429
-0.00562264
0.00371859
-0.00603287
-0.00640769
0.00384784
-1.45555e-06
3.24031e-05
-2.35087e-06
8.18617e-05
1.85448e-07
0.000117246
8.88189e-06
0.000136283
2.64754e-05
0.000136223
5.58373e-05
0.000113708
0.000100106
6.46443e-05
0.000162786
-1.57912e-05
0.000247779
-0.000133069
0.000359287
-0.000293097
0.000501512
-0.000501816
0.000678091
-0.000764524
0.00089122
-0.00108485
0.00114057
-0.00146349
0.00142224
-0.0018969
0.0017281
-0.00237639
0.00204611
-0.0028884
0.00236175
-0.00341566
0.00266042
-0.00394055
0.00293006
-0.00444645
0.00316331
-0.00492492
0.00335715
-0.00536528
0.00351709
-0.00578258
0.00363961
-0.0061554
-0.00652795
0.00375987
-1.37008e-06
3.37732e-05
-1.90856e-06
8.24002e-05
1.41653e-06
0.000113921
1.15512e-05
0.000126148
3.15043e-05
0.00011627
6.44788e-05
8.07331e-05
0.000113983
1.51398e-05
0.000183888
-8.56958e-05
0.000278373
-0.000227554
0.000401701
-0.000416425
0.000557749
-0.000657865
0.000749244
-0.000956018
0.000976755
-0.00131236
0.00123763
-0.00172437
0.00152526
-0.00218452
0.00182906
-0.00268019
0.00213559
-0.00319493
0.00243069
-0.00371075
0.00270187
-0.00421173
0.00294065
-0.00468523
0.00314316
-0.00512742
0.00331023
-0.00553236
0.0034466
-0.00591894
0.00354913
-0.00625793
-0.0066433
0.00366449
-1.18091e-06
3.49541e-05
-1.09843e-06
8.23177e-05
3.43131e-06
0.000109391
1.55669e-05
0.000114012
3.8594e-05
9.32425e-05
7.60393e-05
4.32879e-05
0.00013175
-4.05708e-05
0.000209886
-0.000163832
0.000314764
-0.000332432
0.000450479
-0.00055214
0.000620254
-0.000827639
0.000825518
-0.00116128
0.00106486
-0.00155171
0.00133317
-0.00199268
0.00162137
-0.00247272
0.00191718
-0.002976
0.00220692
-0.00348467
0.00247789
-0.00398172
0.00272051
-0.00445436
0.00292985
-0.00489457
0.0031051
-0.00530268
0.00324995
-0.00567721
0.0033684
-0.00603739
0.00346369
-0.00635322
-0.00672169
0.00354208
-8.945e-07
3.58486e-05
7.0093e-08
8.13531e-05
6.19376e-06
0.000103267
2.08696e-05
9.93365e-05
4.76462e-05
6.64659e-05
9.03512e-05
5.82814e-07
0.000153118
-0.000103337
0.000240293
-0.000251008
0.000356154
-0.000448292
0.000504365
-0.000700351
0.000687162
-0.00101044
0.00090434
-0.00137846
0.00115229
-0.00179966
0.0014235
-0.00226389
0.00170698
-0.0027562
0.0019897
-0.00325871
0.00225878
-0.00375375
0.00250384
-0.00422679
0.0027185
-0.00466901
0.00290096
-0.00507703
0.00305289
-0.00545461
0.0031794
-0.00580372
0.00328367
-0.00614166
0.00337592
-0.00644546
-0.00679577
0.00345001
-5.23734e-07
3.63723e-05
1.53745e-06
7.9292e-05
9.64126e-06
9.51636e-05
2.73586e-05
8.16192e-05
5.84988e-05
3.53257e-05
0.000107156
-4.80747e-05
0.000177679
-0.00017386
0.000274471
-0.0003478
0.000401566
-0.000575387
0.000561922
-0.000860707
0.000756472
-0.00120499
0.000983109
-0.0016051
0.00123597
-0.00205252
0.0015055
-0.00253342
0.00177948
-0.00303018
0.00204509
-0.00352432
0.00229117
-0.00399984
0.00251011
-0.00444573
0.00269857
-0.00485747
0.00285735
-0.00523581
0.00298981
-0.00558707
0.0031015
-0.00591541
0.00319628
-0.00623644
0.00328171
-0.00653089
-0.00686899
0.00335492
-7.71916e-08
3.64495e-05
3.29571e-06
7.59191e-05
1.37008e-05
8.47585e-05
3.4905e-05
6.0415e-05
7.09469e-05
-7.1614e-07
0.000126138
-0.000103266
0.000204949
-0.000252671
0.00031169
-0.00045454
0.000449928
-0.000713626
0.000621635
-0.00103241
0.000826164
-0.00140951
0.00105936
-0.00183829
0.00131325
-0.00230641
0.00157671
-0.00279688
0.00183719
-0.00329065
0.00208294
-0.00377007
0.0023051
-0.004222
0.0024989
-0.00463953
0.00266368
-0.00502225
0.00280212
-0.00537425
0.00291859
-0.00570353
0.00301865
-0.00601547
0.00310582
-0.00632362
0.00318712
-0.00661219
-0.00694198
0.00326012
4.30494e-07
3.6019e-05
5.2918e-06
7.10578e-05
1.82882e-05
7.17621e-05
4.3367e-05
3.53362e-05
8.47656e-05
-4.21147e-05
0.000146952
-0.000165452
0.000234409
-0.000340128
0.000351182
-0.000571312
0.000500137
-0.000862581
0.000681992
-0.00121427
0.000894308
-0.00162183
0.00113087
-0.00207486
0.00138193
-0.00255746
0.00163547
-0.00305043
0.0018794
-0.00353459
0.00210375
-0.00399442
0.00230222
-0.00442047
0.0024727
-0.00481001
0.00261665
-0.0051662
0.00273799
-0.00549559
0.00284148
-0.00580703
0.00293232
-0.00610631
0.0030137
-0.00640499
0.0030914
-0.00668989
-0.00701332
0.00316274
9.85042e-07
3.5034e-05
7.48524e-06
6.45576e-05
2.33205e-05
5.59269e-05
5.26021e-05
6.05458e-06
9.97283e-05
-8.92409e-05
0.000169249
-0.000234973
0.000265534
-0.000436414
0.000392174
-0.000697953
0.000551098
-0.0010215
0.00074153
-0.0014047
0.000959125
-0.00183943
0.00119576
-0.00231149
0.00144037
-0.00280207
0.00168082
-0.00329087
0.00190618
-0.00375995
0.00210868
-0.00419692
0.00228458
-0.00459637
0.00243403
-0.00495947
0.00256005
-0.00529221
0.0026672
-0.00560274
0.00276021
-0.00590005
0.00284371
-0.00618981
0.00292037
-0.00648164
0.00299498
-0.00676451
-0.00708321
1.57772e-06
3.34563e-05
9.84043e-06
5.62948e-05
2.87223e-05
3.70449e-05
6.24781e-05
-2.77012e-05
0.00011562
-0.000142383
0.000192692
-0.000312045
0.000297812
-0.000541533
0.000433913
-0.000834055
0.000601752
-0.00118934
0.000798878
-0.00160183
0.00101904
-0.00205959
0.0012525
-0.00254495
0.00148751
-0.00303708
0.00171247
-0.00351584
0.00191821
-0.00396569
0.00209929
-0.004378
0.00225433
-0.00475141
0.00238527
-0.0050904
0.00249608
-0.00540302
0.00259154
-0.0056982
0.00267607
-0.00598457
0.00275359
-0.00626734
0.00282629
-0.00655433
0.00289806
-0.00683629
-0.00715133
2.2002e-06
3.12561e-05
1.23286e-05
4.61664e-05
3.44304e-05
1.49432e-05
7.28788e-05
-6.61496e-05
0.000132245
-0.000201749
0.000216967
-0.000396767
0.00033075
-0.000655315
0.000475666
-0.000978971
0.000651084
-0.00136476
0.000852776
-0.00180352
0.00107271
-0.00227953
0.0013
-0.00277224
0.0015228
-0.00325988
0.00173072
-0.00372376
0.00191662
-0.00415159
0.00207739
-0.00453876
0.00221361
-0.00488763
0.00232851
-0.00520531
0.00242657
-0.00550108
0.00251242
-0.00578405
0.00258997
-0.00606213
0.0026625
-0.00633987
0.00273171
-0.00662354
0.00280075
-0.00690533
2.84746e-06
2.84086e-05
1.49288e-05
3.4085e-05
4.03941e-05
-1.05221e-05
8.37051e-05
-0.000109461
0.000149426
-0.00026747
0.000241775
-0.000489116
0.000363873
-0.000777413
0.000516722
-0.00113182
0.00069814
-0.00154618
0.000902107
-0.00200749
0.00111909
-0.00249651
0.00133754
-0.00299069
0.0015462
-0.00346854
0.00173629
-0.00391385
0.00190283
-0.00431813
0.00204481
-0.00468075
0.00216439
-0.00500721
0.00226558
-0.0053065
0.00235299
-0.00558849
0.00243087
-0.00586194
0.00250259
-0.00613385
0.0025708
-0.00640807
0.00263678
-0.00668952
-0.00697165
3.51725e-06
2.48914e-05
1.76275e-05
1.99748e-05
4.65751e-05
-3.94697e-05
9.48728e-05
-0.000157758
0.000167002
-0.000339599
0.000266829
-0.000588943
0.000396712
-0.000907296
0.000556394
-0.0012915
0.00074203
-0.00173182
0.000945918
-0.00221137
0.0011574
-0.00270799
0.00136484
-0.00319813
0.00155807
-0.00366177
0.0017302
-0.00408598
0.00187837
-0.0044663
0.00200335
-0.00480573
0.00210841
-0.00511227
0.00219796
-0.00539605
0.00227645
-0.00566698
0.00234766
-0.00593314
0.00241438
-0.00620057
0.0024787
-0.00647239
0.0025416
-0.00675243
4.20948e-06
2.06819e-05
2.04168e-05
3.76747e-06
5.29435e-05
-7.19964e-05
0.000106307
-0.000211122
0.000184816
-0.000418108
0.000291844
-0.000695972
0.000428805
-0.00104426
0.000594018
-0.00145672
0.000781955
-0.00191975
0.000983445
-0.00241287
0.00118716
-0.0029117
0.00138193
-0.00339291
0.00155907
-0.00383891
0.00171367
-0.00424058
0.0018448
-0.00459743
0.00195464
-0.00491556
0.00204715
-0.00520478
0.00212685
-0.00547575
0.00219783
-0.00573796
0.00226333
-0.00599865
0.00232562
-0.00626285
0.00238633
-0.0065331
-0.0068123
4.92543e-06
1.57565e-05
2.3292e-05
-1.45991e-05
5.94737e-05
-0.000108178
0.000117936
-0.000269585
0.000202712
-0.000502884
0.00031653
-0.00080979
0.000459686
-0.00118741
0.000628966
-0.001626
0.000817222
-0.00210801
0.00101413
-0.00260978
0.00120819
-0.00310575
0.00138917
-0.00357389
0.00155009
-0.00399983
0.001688
-0.0043785
0.00180361
-0.00471303
0.00190011
-0.00501206
0.00198186
-0.00528653
0.00205319
-0.00554708
0.00211776
-0.00580252
0.00217826
-0.00605915
0.00223652
-0.00632111
0.00229378
-0.00659037
-0.00686913
5.6669e-06
1.00896e-05
2.62495e-05
-3.51817e-05
6.614e-05
-0.000148069
0.000129684
-0.000333129
0.000220524
-0.000593723
0.000340585
-0.000929851
0.000488895
-0.00133572
0.000660658
-0.00179776
0.000847268
-0.00229462
0.00103764
-0.00280015
0.00122057
-0.00328868
0.00138713
-0.00374045
0.00153215
-0.00414485
0.00165449
-0.00450083
0.00175615
-0.0048147
0.00184102
-0.00509694
0.00191353
-0.00535903
0.0019777
-0.00561126
0.0020367
-0.00586151
0.00209272
-0.00611518
0.00214719
-0.00637558
0.00220108
-0.00664426
-0.00692286
6.43534e-06
3.65422e-06
2.92843e-05
-5.80307e-05
7.29125e-05
-0.000191697
0.000141466
-0.000401682
0.000238069
-0.000690327
0.000363696
-0.00105548
0.000515985
-0.00148801
0.000688585
-0.00197036
0.000871677
-0.00247771
0.00105384
-0.00298231
0.0012246
-0.00345944
0.00137655
-0.0038924
0.00150634
-0.00427465
0.00161437
-0.00460886
0.00170364
-0.00490397
0.00177841
-0.0051717
0.00184296
-0.00542359
0.00190094
-0.00566923
0.00195498
-0.00591555
0.00200688
-0.00616707
0.00205772
-0.00642642
0.00210827
-0.0066948
7.23126e-06
-3.57705e-06
3.23877e-05
-8.31871e-05
7.97536e-05
-0.000239063
0.000153183
-0.000475112
0.000255155
-0.000792299
0.000385546
-0.00118587
0.000540537
-0.001643
0.000712323
-0.00214215
0.00089019
-0.00265558
0.0010628
-0.00315492
0.00122074
-0.00361738
0.00135828
-0.00402993
0.00147373
-0.0043901
0.00156878
-0.0047039
0.00164712
-0.00498231
0.00171311
-0.00523769
0.00177078
-0.00548126
0.00182329
-0.00572174
0.00187284
-0.00596511
0.00192085
-0.00621508
0.00196816
-0.00647373
-0.00674199
8.05377e-06
-1.16308e-05
3.55469e-05
-0.00011068
8.66167e-05
-0.000290132
0.000164725
-0.000553221
0.000271572
-0.000899145
0.000405819
-0.00132012
0.000562174
-0.00179936
0.000731554
-0.00231152
0.0009027
-0.00282672
0.00106475
-0.00331697
0.00120961
-0.00376225
0.0013332
-0.00415352
0.00143536
-0.00449225
0.00151874
-0.00478729
0.00158747
-0.00505104
0.00164581
-0.00529604
0.00169744
-0.00553289
0.00174506
-0.00576935
0.00179045
-0.00601051
0.00183472
-0.00625936
0.00187853
-0.00651753
-0.00678577
8.90034e-06
-2.05312e-05
3.87437e-05
-0.000140524
9.34459e-05
-0.000344835
0.000175969
-0.000635744
0.000287106
-0.00101028
0.000424216
-0.00145723
0.000580578
-0.00195572
0.000746067
-0.00247701
0.000909248
-0.0029899
0.00106006
-0.00346779
0.00119188
-0.00389406
0.00130221
-0.00426386
0.00139217
-0.00458221
0.00146515
-0.00486027
0.00152542
-0.00511131
0.00157707
-0.00534768
0.00162332
-0.00557914
0.00166646
-0.00581249
0.00170791
-0.00605196
0.00174854
-0.00629999
0.00178885
-0.00655784
-0.00682611
9.76681e-06
-3.0298e-05
4.1955e-05
-0.000172712
0.000100176
-0.000403056
0.000186782
-0.000722349
0.000301541
-0.00112504
0.000440462
-0.00159615
0.000595499
-0.00211076
0.000755764
-0.00263728
0.000910001
-0.00314414
0.00104921
-0.00360699
0.00116827
-0.00401313
0.00126617
-0.00436176
0.00134504
-0.00466108
0.00140875
-0.00492398
0.00146158
-0.00516415
0.00150729
-0.00539339
0.00154868
-0.00562054
0.00158765
-0.00585145
0.00162532
-0.00608963
0.00166235
-0.00633702
0.00169915
-0.00659463
1.06474e-05
-4.09454e-05
4.51532e-05
-0.000207217
0.000106737
-0.000464639
0.000197026
-0.000812639
0.000314672
-0.00124269
0.000454322
-0.0017358
0.000606765
-0.0022632
0.000760656
-0.00279117
0.000905229
-0.00328871
0.00103272
-0.00373448
0.00113951
-0.00411992
0.00122586
-0.00444811
0.00129471
-0.00472992
0.00135019
-0.00497946
0.00139643
-0.00521038
0.00143681
-0.00543377
0.00147374
-0.00565747
0.00150875
-0.00588646
0.00154272
-0.00612361
0.00157618
-0.00637048
-0.00662788
1.15352e-05
-5.24807e-05
4.8307e-05
-0.000243989
0.00011305
-0.000529383
0.000206564
-0.000906153
0.000326306
-0.00136243
0.000465604
-0.00187509
0.000614284
-0.00241188
0.000760849
-0.00293774
0.000895287
-0.00342315
0.00101117
-0.00385037
0.0011063
-0.00421505
0.00118203
-0.00452383
0.00124185
-0.00478975
0.00129
-0.00502761
0.00133034
-0.00525073
0.00136588
-0.0054693
0.00139863
-0.00569022
0.00142983
-0.00591766
0.00146017
-0.00615395
0.00149005
-0.00640036
-0.00665755
1.24221e-05
-6.49027e-05
5.13825e-05
-0.00028295
0.000119038
-0.000597038
0.000215263
-0.00100238
0.000336277
-0.00148344
0.000474171
-0.00201299
0.00061804
-0.00255575
0.000756529
-0.00307622
0.000880585
-0.00354721
0.00098515
-0.00395493
0.00106932
-0.00429922
0.00113532
-0.00458983
0.00118702
-0.00484146
0.00122861
-0.00506919
0.00126363
-0.00528575
0.00129469
-0.00550037
0.00132348
-0.00571901
0.00135097
-0.00594515
0.00137771
-0.00618069
0.00140399
-0.00642665
-0.00668359
1.3299e-05
-7.82017e-05
5.43442e-05
-0.000323995
0.000124623
-0.000667317
0.000223001
-0.00110076
0.000344446
-0.00160489
0.000479937
-0.00214848
0.00061809
-0.0026939
0.000747949
-0.00320608
0.000861566
-0.00366083
0.000955226
-0.00404859
0.00102916