/*--------------------------------*- C++ -*----------------------------------*\
  =========                 |
  \\      /  F ield         | OpenFOAM: The Open Source CFD Toolbox
   \\    /   O peration     | Website:  https://openfoam.org
    \\  /    A nd           | Version:  7
     \\/     M anipulation  |
\*---------------------------------------------------------------------------*/
FoamFile
{
    version     2.0;
    format      ascii;
    class       volScalarField;
    location    "90";
    object      p;
}
// * * * * * * * * * * * * * * * * * * * * * * * * * * * * * * * * * * * * * //

dimensions      [0 2 -2 0 0 0 0];

internalField   nonuniform List<scalar> 
1989
(
0.00557346
-0.000904044
-0.00882048
-0.0192741
-0.0340567
-0.0542227
-0.0788185
-0.102895
-0.119947
-0.124133
-0.11538
-0.0972698
-0.0756874
-0.0546699
-0.0366508
-0.0217525
-0.00993678
-0.000565746
0.00698251
0.0126886
0.0175487
0.0195059
0.0213356
0.0199945
0.0190955
0.0158936
0.01395
0.00964384
0.00290277
-0.0385357
-0.0662847
-0.0957407
-0.123198
-0.14386
-0.153767
-0.151779
-0.139881
-0.121877
-0.101519
-0.0814635
-0.0631387
-0.0470637
-0.03327
-0.0215584
-0.0116294
-0.0032304
0.00380987
0.00967738
0.0145883
0.0185586
0.0213414
0.0225537
0.022136
0.0203057
0.0172806
0.0130776
0.00775475
0.00133001
-0.00657099
-0.0171167
-0.0321408
-0.052688
-0.077747
-0.102219
-0.1194
-0.123408
-0.114288
-0.095891
-0.0741926
-0.0532018
-0.0352811
-0.0204985
-0.00878322
0.000522109
0.00802762
0.0137344
0.0186667
0.0207537
0.0227686
0.0214369
0.0206528
0.0173106
0.01525
0.0105859
0.00325227
-0.0351944
-0.0624297
-0.090886
-0.116912
-0.136016
-0.144719
-0.142262
-0.130736
-0.113741
-0.0946893
-0.0759403
-0.0587492
-0.0435756
-0.0304571
-0.0192337
-0.00964792
-0.00147476
0.00543071
0.0112159
0.0160822
0.0200686
0.0229674
0.0243911
0.0241848
0.0224782
0.0194997
0.015324
0.0100594
0.00371541
-0.00414132
-0.0147423
-0.0299621
-0.0508332
-0.076284
-0.101064
-0.118303
-0.122116
-0.112664
-0.0940657
-0.0723621
-0.0515035
-0.0337626
-0.0191529
-0.00757635
0.0016374
0.00907901
0.0147712
0.0197607
0.0219846
0.0242056
0.0229178
0.0222799
0.01882
0.016618
0.0115932
0.00362479
-0.0320903
-0.0585149
-0.085666
-0.110008
-0.12742
-0.13491
-0.132098
-0.121115
-0.105288
-0.0876575
-0.0702868
-0.0542737
-0.040032
-0.0276121
-0.0168959
-0.00767162
0.000257868
0.00701509
0.0127095
0.0175183
0.021501
0.0244937
0.0261245
0.0261635
0.0246409
0.0217705
0.0176735
0.0125035
0.00626602
-0.00152188
-0.0121452
-0.0275119
-0.0486356
-0.0743846
-0.0993728
-0.116597
-0.120195
-0.110459
-0.0917626
-0.0701784
-0.0495668
-0.0320932
-0.0177173
-0.00631934
0.00277681
0.0101332
0.0157951
0.0208254
0.0231894
0.0256349
0.0244277
0.0239712
0.0204205
0.0180533
0.0126676
0.00402172
-0.0291695
-0.0544793
-0.0800342
-0.102473
-0.118102
-0.124424
-0.121409
-0.111146
-0.0966282
-0.0805054
-0.0645594
-0.0497499
-0.0364578
-0.0247522
-0.0145576
-0.00570961
0.00195995
0.00855492
0.0141503
0.0188919
0.0228539
0.0259178
0.0277444
0.0280548
0.0267773
0.0240858
0.0201292
0.0150971
0.00899504
0.0013012
-0.00931058
-0.024771
-0.0460676
-0.0720125
-0.0971004
-0.114222
-0.117567
-0.107627
-0.0889563
-0.0676293
-0.0473874
-0.0302732
-0.0161945
-0.00501646
0.00393601
0.0111862
0.016802
0.0218548
0.0243577
0.0270411
0.0259526
0.0257158
0.0221058
0.0195522
0.0138088
0.00444374
-0.0263296
-0.0502298
-0.073924
-0.0942926
-0.108125
-0.113393
-0.110361
-0.100985
-0.087884
-0.0733203
-0.0588171
-0.0452166
-0.0328789
-0.0218953
-0.012232
-0.00377135
0.00362407
0.0100426
0.0155306
0.0201981
0.024125
0.0272382
0.0292425
0.0298388
0.0288629
0.0264262
0.0226803
0.0178375
0.0119047
0.0043326
-0.00623199
-0.0217287
-0.0431128
-0.0691399
-0.0942016
-0.111123
-0.114212
-0.104135
-0.0856289
-0.0647091
-0.0449654
-0.0283053
-0.0145891
-0.00367308
0.00510958
0.0122333
0.0177874
0.022843
0.0254779
0.0284062
0.0274735
0.0274969
0.023863
0.021106
0.0150123
0.00489047
-0.0234273
-0.0456504
-0.0672773
-0.0854946
-0.0976123
-0.102002
-0.0991507
-0.0908038
-0.079184
-0.0661907
-0.0531187
-0.0407127
-0.0293211
-0.0190594
-0.00993211
-0.00186655
0.005243
0.0114711
0.0168426
0.0214311
0.0253118
0.0284534
0.0306119
0.0314951
0.0308658
0.0287586
0.0252996
0.0207055
0.0149824
0.00756283
-0.002917
-0.0183894
-0.0397674
-0.0657465
-0.0906388
-0.107254
-0.110074
-0.099957
-0.0817735
-0.0614203
-0.0423063
-0.0261956
-0.012907
-0.00229556
0.00629104
0.0132693
0.0187461
0.0237837
0.0265384
0.0297097
0.0289671
0.0292906
0.0256717
0.0227013
0.0162693
0.00536014
-0.020311
-0.0406475
-0.0600939
-0.076185
-0.0866517
-0.0904826
-0.0880032
-0.0807793
-0.0706543
-0.0592016
-0.0475204
-0.0362757
-0.0258096
-0.0162619
-0.0076711
-4.99113e-06
0.00680968
0.0128343
0.0180792
0.0225846
0.0264113
0.0295623
0.0318479
0.0330044
0.0327493
0.0310372
0.0279422
0.0236628
0.0181973
0.0109655
0.000610682
-0.014772
-0.0360395
-0.0618239
-0.0863899
-0.102587
-0.105133
-0.0950871
-0.0773959
-0.0577748
-0.0394221
-0.0239534
-0.0111562
-0.000891185
0.00747291
0.0142882
0.0196729
0.0246704
0.0275274
0.030929
0.0304064
0.0310661
0.0275031
0.024318
0.0175645
0.00584925
-0.0168874
-0.0352169
-0.0524808
-0.0665862
-0.0757136
-0.0791197
-0.0771484
-0.0710813
-0.062411
-0.0524298
-0.0420734
-0.0319404
-0.0223685
-0.0135198
-0.00546147
0.00180366
0.00831725
0.0141269
0.0192337
0.023652
0.0274197
0.0305638
0.0329476
0.0343505
0.0344754
0.0332063
0.0305458
0.0266501
0.0214972
0.0144943
0.00430932
-0.0109115
-0.0319527
-0.0573816
-0.0814528
-0.0971178
-0.0993897
-0.0895377
-0.0725175
-0.0537953
-0.0363314
-0.0215921
-0.00934616
0.000531953
0.00864694
0.015283
0.0205617
0.0254966
0.0284339
0.0320405
0.0317603
0.0327861
0.0293197
0.0259297
0.0188765
0.00635221
-0.0131849
-0.0294871
-0.0446702
-0.0569981
-0.0650274
-0.0681897
-0.0667982
-0.0618566
-0.0545517
-0.0459406
-0.0368221
-0.0277379
-0.0190202
-0.0108489
-0.00331505
0.00355013
0.00975901
0.015344
0.0203012
0.0246265
0.0283327
0.0314568
0.0339094
0.0355213
0.0360106
0.0352047
0.0330331
0.0295867
0.0248057
0.0180799
0.0081166
-0.00686175
-0.0275505
-0.0524506
-0.0758487
-0.0908645
-0.09287
-0.0833448
-0.0671771
-0.0495158
-0.0330596
-0.0191291
-0.00748838
0.00196512
0.00980444
0.0162462
0.0214062
0.0262558
0.0292479
0.0330221
0.0329966
0.0344057
0.0310752
0.0275026
0.0201763
0.00686093
-0.00936316
-0.0237067
-0.036978
-0.0477563
-0.0548938
-0.0579349
-0.0571223
-0.0532175
-0.047151
-0.0397849
-0.031803
-0.0236951
-0.0157846
-0.00826404
-0.00124273
0.00522584
0.0111286
0.0164819
0.0212778
0.0255023
0.0291446
0.0322392
0.0347336
0.0365116
0.037322
0.0369719
0.0353183
0.0323736
0.0280228
0.0216289
0.0119481
-0.00269765
-0.0228983
-0.0470854
-0.0696248
-0.0838747
-0.0856305
-0.0765707
-0.0614328
-0.0449822
-0.029639
-0.0165854
-0.00559615
0.00339903
0.0109367
0.0171694
0.0221996
0.0269414
0.0299611
0.0338536
0.0340839
0.0358745
0.0327154
0.0289964
0.0214275
0.0073646
-0.00565282
-0.0181692
-0.0297223
-0.0391585
-0.0455556
-0.0485283
-0.0482339
-0.0452366
-0.0402579
-0.033999
-0.0270441
-0.0198343
-0.0126793
-0.0057784
0.00074566
0.00682311
0.0124201
0.0175368
0.022161
0.0262747
0.0298497
0.0329083
0.0354215
0.0373203
0.0383954
0.0384581
0.0373167
0.0349018
0.0310299
0.0250265
0.0156989
0.00148577
-0.0180834
-0.0413654
-0.0628547
-0.0762268
-0.0777604
-0.0693056
-0.0553616
-0.0402515
-0.0261078
-0.0139854
-0.00368444
0.00482399
0.0120352
0.0180439
0.0229343
0.0275469
0.0305666
0.0345184
0.0349907
0.0371393
0.0341805
0.0303651
0.0225869
0.00784963
-0.00226875
-0.0131212
-0.0231468
-0.0314098
-0.0371612
-0.0400599
-0.0401863
-0.0379478
-0.0338985
-0.0286055
-0.0225657
-0.016173
-0.00971907
-0.00340377
0.00264142
0.00833531
0.0136284
0.0185058
0.0229496
0.0269413
0.0304425
0.0334602
0.0359742
0.0379481
0.0392264
0.0396334
0.0389591
0.0370661
0.0337006
0.0281441
0.0192493
0.00557731
-0.0132118
-0.0353914
-0.0556364
-0.0680277
-0.0693808
-0.0616669
-0.0490586
-0.0353907
-0.022509
-0.011356
-0.00176962
0.00622997
0.0130922
0.0188613
0.0236024
0.0280659
0.0310599
0.035005
0.0356933
0.0381468
0.0354092
0.0315585
0.0236052
0.00829987
0.000650232
-0.00870954
-0.0173813
-0.0246019
-0.0297589
-0.0325465
-0.0329832
-0.0313536
-0.028079
-0.023615
-0.0183808
-0.0127245
-0.0069159
-0.00115015
0.00443705
0.00975701
0.0147494
0.0193862
0.0236432
0.0275017
0.0309198
0.0338905
0.0363922
0.0384082
0.0398231
0.0404911
0.0402054
0.0387852
0.0359207
0.0308543
0.0224738
0.00945728
-0.00839911
-0.0292753
-0.0480851
-0.0594105
-0.0606401
-0.053796
-0.0426341
-0.0304742
-0.0188891
-0.00872548
0.000131056
0.00760674
0.0141006
0.0196136
0.0241953
0.0284921
0.0314377
0.0353077
0.0361759
0.0388491
0.0363439
0.0325244
0.0244298
0.00869739
0.00305359
-0.00497777
-0.0124455
-0.0187297
-0.0233257
-0.0259545
-0.0265934
-0.0254336
-0.0227913
-0.0190288
-0.0144965
-0.00949806
-0.0042791
0.0009743
0.00612631
0.011084
0.0157799
0.0201763
0.0242418
0.027957
0.0312805
0.0341958
0.0366742
0.0387046
0.0402011
0.0410461
0.0410516
0.0400199
0.0376119
0.0330512
0.0252568
0.0130106
-0.00375308
-0.0231207
-0.0403209
-0.0505288
-0.0517144
-0.0458543
-0.0362084
-0.0255802
-0.0152955
-0.00612256
0.00200008
0.00894396
0.0150541
0.0202944
0.0247047
0.028819
0.0316975
0.0354264
0.0364319
0.0392095
0.0369375
0.0332107
0.0250076
0.00902433
0.00495875
-0.00189486
-0.00829337
-0.0137312
-0.0177893
-0.0202166
-0.0209642
-0.0201533
-0.0180171
-0.014841
-0.0109145
-0.00649917
-0.00181533
0.00296333
0.00770429
0.012313
0.0167182
0.0208753
0.0247463
0.0283099
0.0315265
0.034375
0.0368193
0.0388426
0.0403777
0.0413277
0.0415277
0.040782
0.0387521
0.034676
0.0275144
0.0161504
0.000652693
-0.0170071
-0.0324627
-0.0415594
-0.0428078
-0.0380167
-0.0299046
-0.0207866
-0.0117744
-0.00357481
0.00382053
0.0102314
0.0159473
0.0208989
0.0251236
0.0290402
0.031837
0.035366
0.0364639
0.0392084
0.0371606
0.0335684
0.0252923
0.00926593
0.00641822
0.000605142
-0.00484527
-0.00951456
-0.0130572
-0.0152519
-0.0160333
-0.0154702
-0.0137317
-0.0110402
-0.00763213
-0.00373008
0.000471272
0.00481263
0.00916754
0.0134423
0.017564
0.0214834
0.0251583
0.0285638
0.0316621
0.0344309
0.036829
0.0388262
0.0403679
0.0413691
0.0416837
0.0411269
0.0393817
0.0357375
0.0292251
0.0188484
0.00479164
-0.0109966
-0.0246479
-0.0327163
-0.0341442
-0.0304591
-0.0238403
-0.0161657
-0.00836871
-0.0011077
0.00557676
0.0114594
0.0167752
0.021424
0.0254468
0.0291506
0.0318531
0.0351349
0.0362817
0.0388482
0.0370067
0.0335569
0.0252529
0.00941472
0.00749501
0.00259936
-0.00200722
-0.00598044
-0.00903606
-0.0109794
-0.011736
-0.0113385
-0.00990663
-0.00761133
-0.0046434
-0.00119006
0.00257891
0.00651974
0.010514
0.0144709
0.0183176
0.0220024
0.0254801
0.0287226
0.0316931
0.0343699
0.0367094
0.0386605
0.0401846
0.0411998
0.0415728
0.0411304
0.039587
0.0363117
0.0304434
0.0211397
0.0086604
-0.00517384
-0.0170686
-0.0242531
-0.0259489
-0.0233426
-0.0181177
-0.0117793
-0.00511551
0.0012564
0.00725495
0.0126192
0.0175334
0.0218681
0.0256722
0.0291475
0.0317423
0.0347421
0.0358982
0.0381553
0.036494
0.033153
0.0248846
0.0094731
0.00825183
0.00416519
0.000307889
-0.00303697
-0.00563652
-0.00731964
-0.00800904
-0.00771218
-0.0065115
-0.00453648
-0.00193937
0.00112421
0.004508
0.00808399
0.0117433
0.0153993
0.0189808
0.0224351
0.0257158
0.0287914
0.031626
0.0341998
0.0364728
0.0383546
0.0398408
0.0408448
0.0412406
0.040866
0.0394681
0.0365109
0.0312711
0.0230812
0.0122271
0.000310019
-0.00997208
-0.0164269
-0.0184171
-0.0167945
-0.0128144
-0.00767526
-0.0020446
0.00349882
0.00884349
0.0137034
0.0182182
0.0222311
0.0258005
0.0290322
0.0315021
0.0341645
0.0353258
0.0371769
0.0356607
0.0323626
0.0242134
0.0094498
0.00874552
0.0053714
0.00217912
-0.000601334
-0.00277768
-0.00420035
-0.00479246
-0.00454595
-0.00351492
-0.00179584
0.000491245
0.00321835
0.00626095
0.00950643
0.0128561
0.0162288
0.0195561
0.0227855
0.0258702
0.0287764
0.0314684
0.0339287
0.0361391
0.0379202
0.0393518
0.0403273
0.0407247
0.0403933
0.039111
0.0364394
0.031801
0.0246992
0.0154064
0.00525865
-0.00359921
-0.00943734
-0.0116829
-0.0108948
-0.00797863
-0.003885
0.000822231
0.00560493
0.0103331
0.0147064
0.018827
0.0225142
0.0258349
0.0288092
0.0311367
0.0334721
0.0345802
0.0359732
0.0345554
0.0312279
0.0232883
0.00934819
0.00902534
0.00627877
0.00367414
0.00139942
-0.000387202
-0.0015549
-0.00203081
-0.00179657
-0.000885572
0.000631658
0.00266154
0.00509995
0.00784196
0.0107897
0.0138547
0.0169621
0.0200472
0.0230585
0.0259496
0.0286848
0.0312277
0.0335606
0.0357406
0.0373673
0.0387359
0.0396718
0.0400582
0.0397576
0.0385766
0.0361671
0.0320861
0.0259834
0.0181005
0.00951217
0.00189167
-0.00339314
-0.00580251
-0.00567208
-0.00362969
-0.000424825
0.00347103
0.0075641
0.0117168
0.0156243
0.0193584
0.0227195
0.0257798
0.0284864
0.0306514
0.0326636
0.0336758
0.0346055
0.0332271
0.02982
0.0221622
0.00915527
0.00913242
0.00693865
0.00485291
0.00302977
0.00159926
0.000675913
0.000327129
0.00057709
0.00140749
0.00276783
0.00458603
0.00677822
0.00925686
0.0119377
0.0147424
0.0176029
0.0204586
0.0232599
0.0259613
0.0285258
0.0309138
0.0330849
0.0349108
0.0366903
0.0380149
0.038905
0.039272
0.038995
0.0379067
0.0357362
0.0321541
0.0269261
0.020263
0.0130126
0.0064665
0.00170776
-0.000761291
-0.00111263
0.000236862
0.00270185
0.00589474
0.00936953
0.0129898
0.016455
0.0198125
0.0228503
0.0256416
0.0280747
0.0300555
0.0317535
0.0326294
0.0331262
0.03172
0.0282205
0.0208772
0.00884648
0.00910268
0.00739357
0.00576615
0.0043473
0.00323844
0.00254503
0.0023279
0.00261361
0.00339433
0.00463482
0.00628027
0.00826372
0.0105128
0.0129557
0.0155238
0.0181557
0.0207956
0.0233961
0.0259135
0.0283105
0.030547
0.0325843
0.0343633
0.0359734
0.0372201
0.0380557
0.0383971
0.0381383
0.0371353
0.0351809
0.0320359
0.0275546
0.0219229
0.0158049
0.0101914
0.00593991
0.0035042
0.0028256
0.00364181
0.00550125
0.00809207
0.0110178
0.0141496
0.017198
0.0201911
0.0229113
0.025428
0.0275877
0.0293632
0.0307602
0.0314615
0.0315752
0.0300755
0.0265028
0.0194703
0.00840725
0.00896629
0.00768093
0.00645676
0.00540331
0.00457955
0.00409936
0.00401385
0.00434905
0.00510394
0.00625479
0.00776046
0.00956802
0.0116182
0.0138501
0.0162043
0.0186259
0.021064
0.0234742
0.025815
0.0280497
0.0301397
0.0320492
0.0337383
0.0352169
0.036376
0.0371515
0.0374637
0.0372195
0.0362961
0.0345373
0.0317736
0.0279246
0.0231563
0.0179898
0.013183
0.0094136
0.0070811
0.00619914
0.0066155
0.00798623
0.0100663
0.0125087
0.0151958
0.0178544
0.0204977
0.0229085
0.0251488
0.0270388
0.0285915
0.0297041
0.0301992
0.0299824
0.0283377
0.0247266
0.0179866
0.00785076
0.00874854
0.0078322
0.00696
0.00624425
0.00566209
0.00537972
0.00542337
0.00581692
0.00656402
0.00764955
0.00904319
0.0107035
0.0125821
0.014628
0.01679
0.0190195
0.0212705
0.0235019
0.0256745
0.0277532
0.0297015
0.0314855
0.0330696
0.034434
0.0355046
0.0362185
0.0365007
0.0362696
0.0354218
0.0338416
0.0314118
0.0280989
0.024052
0.0196808
0.0155676
0.0122464
0.0100616
0.00906914
0.00919288
0.0101739
0.0118243
0.0138444
0.0161295
0.0184268
0.020737
0.0228491
0.0248147
0.0264418
0.0277603
0.0286061
0.028874
0.028374
0.0265569
0.0229422
0.0164838
0.00721488
0.00847215
0.00787472
0.00729591
0.00679116
0.00651011
0.00642223
0.00659164
0.00704847
0.00780089
0.00884043
0.0101451
0.0116828
0.0134145
0.0152974
0.0172878
0.0193431
0.021422
0.0234868
0.0255009
0.0274309
0.0292431
0.0309051
0.0323812
0.0336409
0.0346263
0.0352804
0.035534
0.0353166
0.034542
0.0331258
0.0309901
0.0281333
0.0246894
0.0209815
0.0174603
0.0145461
0.0125328
0.0114956
0.0114103
0.0120839
0.0133755
0.0150294
0.016954
0.0189188
0.0209148
0.0227414
0.0244372
0.025811
0.0268918
0.027487
0.0275198
0.0267766
0.0247857
0.0211947
0.0150204
0.00654722
0.00815778
0.00783821
0.00752714
0.00728236
0.00719043
0.00726645
0.00755173
0.00807269
0.00883939
0.00984796
0.0110829
0.0125192
0.0141256
0.0158667
0.0177051
0.0196035
0.0215255
0.0234366
0.025303
0.0270935
0.0287764
0.030321
0.0316913
0.0328541
0.0337602
0.0343585
0.0345868
0.0343848
0.0336815
0.0324161
0.0305404
0.0280723
0.0251319
0.0219772
0.0189585
0.0164069
0.0145712
0.0135342
0.0133038
0.0137372
0.0147313
0.0160698
0.0176737
0.0193351
0.0210379
0.0225942
0.0240289
0.0251604
0.0260094
0.0263685
0.0261702
0.0252177
0.023072
0.0195237
0.0136436
0.00589103
0.00782262
0.00774414
0.0076669
0.00764016
0.00772223
0.0079423
0.00833278
0.00891611
0.00970272
0.0106918
0.0118724
0.0132257
0.0147262
0.0163446
0.0180494
0.0198081
0.0215884
0.0233593
0.0250899
0.026751
0.0283126
0.0297459
0.0310162
0.03209
0.0329237
0.0334717
0.0336791
0.0334943
0.0328599
0.0317332
0.0300866
0.0279498
0.0254298
0.0227347
0.0201404
0.0179068
0.0162445
0.0152357
0.0149076
0.0151552
0.0159044
0.0169733
0.0182942
0.0196816
0.0211136
0.0224171
0.0236034
0.0245044
0.025136
0.0252701
0.0248562
0.0237248
0.0214547
0.0179621
0.0123848
0.00527786
0.00748153
0.00761039
0.00773311
0.00789074
0.00812809
0.00847546
0.0089605
0.00960271
0.0104123
0.0113904
0.0125295
0.013815
0.0152266
0.0167401
0.0183286
0.0199641
0.0216181
0.0232627
0.0248698
0.0264125
0.0278626
0.0291927
0.0303705
0.0313637
0.0321325
0.0326365
0.0328274
0.0326617
0.0320932
0.0310925
0.0296466
0.0277913
0.0256219
0.0233069
0.0210672
0.0191099
0.0176101
0.0166451
0.0162537
0.0163589
0.0169079
0.0177483
0.018822
0.0199646
0.02115
0.0222204
0.0231742
0.0238558
0.0242329
0.0242092
0.0236059
0.0223239
0.0199628
0.0165353
0.0112607
0.00472667
0.00714764
0.007452
0.00774384
0.00805779
0.00843024
0.00888887
0.00945774
0.0101541
0.0109878
0.0119609
0.0130686
0.0142996
0.0156374
0.0170621
0.0185506
0.0200788
0.0216217
0.0231542
0.024651
0.0260873
0.0274368
0.0286735
0.0297676
0.0306888
0.0314007
0.0318672
0.0320461
0.0319005
0.0313938
0.0305058
0.0292339
0.0276163
0.0257374
0.0237354
0.0217893
0.0200673
0.0187148
0.0178012
0.0173712
0.0173681
0.0177549
0.0184036
0.0192641
0.020191
0.0211553
0.0220144
0.0227555
0.0232396
0.0234271
0.0232174
0.0224453
0.0210381
0.0186171
0.0152605
0.0102779
0.00424637
0.00683196
0.00728306
0.00771669
0.00816178
0.00864899
0.00920294
0.00984471
0.0105896
0.0114469
0.0124193
0.0135036
0.0146912
0.0159686
0.017319
0.018723
0.0201595
0.0216064
0.0230414
0.0244415
0.025784
0.0270447
0.0281991
0.0292195
0.0300778
0.0307409
0.0311762
0.0313469
0.0312216
0.0307711
0.0299822
0.0288589
0.0274393
0.0257989
0.0240526
0.0223474
0.0208213
0.019597
0.0187369
0.0182856
0.0182013
0.0184583
0.0189481
0.0196276
0.0203677
0.0211379
0.0218092
0.0223604
0.0226685
0.0226841
0.0223132
0.0213967
0.0198875
0.0174322
0.0141492
0.00943716
0.00383924
0.00654512
0.00711674
0.00766741
0.00821993
0.00880205
0.00943566
0.0101392
0.0109262
0.0118053
0.0127796
0.013847
0.0150006
0.0162294
0.0175193
0.0188533
0.0202132
0.0215792
0.0229315
0.0242492
0.0255114
0.0266957
0.0277795
0.028737
0.029542
0.0301643
0.0305745
0.03074
0.0306342
0.0302332
0.0295292
0.0285299
0.0272722
0.0258241
0.0242831
0.0227725
0.021406
0.02029
0.0194803
0.0190191
0.0188748
0.0190295
0.0193904
0.0199195
0.0205019
0.0211059
0.0216152
0.0220017
0.0221565
0.0220218
0.0215148
0.0204793
0.0188894
0.0164189
0.0132081
0.00873654
0.00350386
0.00629686
0.00696393
0.00760979
0.0082462
0.0089043
0.0096023
0.0103563
0.0111785
0.0120767
0.0130541
0.0141095
0.0152373
0.0164283
0.0176702
0.0189483
0.0202463
0.0215467
0.0228315
0.0240815
0.0252776
0.0263989
0.0274245
0.0283303
0.0290919
0.0296814
0.0300721
0.0302348
0.0301464
0.0297873
0.029153
0.0282537
0.0271245
0.0258272
0.0244464
0.023088
0.0218481
0.02082
0.0200542
0.01959
0.0194022
0.0194785
0.0197378
0.0201462
0.0206001
0.0210672
0.021442
0.0216912
0.021718
0.0214582
0.02084
0.0197104
0.0180592
0.0155863
0.0124417
0.00817346
0.00323739
0.00609657
0.0068335
0.00754296
0.0082499
0.00896784
0.00971572
0.0105088
0.0113584
0.012272
0.0132528
0.0143001
0.0154093
0.0165722
0.0177782
0.0190139
0.0202649
0.0215151
0.0227478
0.0239456
0.0250905
0.0261631
0.0271435
0.0280092
0.0287376
0.0293024
0.0296787
0.0298402
0.0297662
0.0294403
0.0288598
0.0280365
0.027004
0.0258192
0.0245573
0.0233117
0.0221671
0.0212063
0.0204758
0.0200119
0.019794
0.0198129
0.0199964
0.020313
0.0206682
0.0210293
0.0212991
0.0214412
0.0213676
0.0210102
0.0203065
0.0191067
0.0174114
0.014943
0.0118541
0.00774633
0.00303701
0.00595412
0.00673923
0.00749614
0.00824638
0.00900418
0.00978609
0.0106061
0.0114748
0.0123994
0.013383
0.0144254
0.0155222
0.0166665
0.0178481
0.0190552
0.020274
0.0214897
0.0226867
0.0238484
0.0249579
0.0259967
0.0269459
0.0277842
0.0284897
0.0290377
0.0294046
0.0295657
0.0295022
0.0291995
0.0286562
0.0278849
0.0269178
0.0258086
0.0246262
0.0234563
0.0223762
0.0214614
0.0207558
0.0202933
0.0200563
0.0200373
0.0201696
0.0204238
0.0207112
0.0209988
0.0211957
0.021263
0.0211195
0.0206942
0.0199319
0.0186849
0.0169612
0.0144991
0.0114511
0.00745631
0.00290092
0.00587884
0.00668887
0.00747034
0.00824266
0.00902083
0.00982026
0.0106542
0.0115329
0.0124633
0.0134486
0.0144885
0.0155792
0.0167138
0.017883
0.0190752
0.0202774
0.0214752
0.0226536
0.0237966
0.0248876
0.0259088
0.0268417
0.0276657
0.0283594
0.0288988
0.0292609
0.0294221
0.0293642
0.0290738
0.02855
0.0278056
0.0268722
0.0258016
0.0246598
0.0235288
0.0224816
0.0215903
0.020898
0.0204367
0.0201903
0.0201519
0.0202582
0.0204798
0.0207323
0.0209812
0.0211404
0.021168
0.0209884
0.020527
0.0197347
0.0184634
0.0167254
0.0142683
0.0112414
0.00730844
0.00282976
)
;

boundaryField
{
    inlet
    {
        type            zeroGradient;
    }
    outlet
    {
        type            fixedValue;
        value           uniform 0;
    }
    cylinder
    {
        type            zeroGradient;
    }
    top
    {
        type            symmetryPlane;
    }
    bottom
    {
        type            symmetryPlane;
    }
    defaultFaces
    {
        type            empty;
    }
    procBoundary15to11
    {
        type            processor;
        value           nonuniform List<scalar> 
57
(
0.0035127
-0.00298106
-0.0108742
-0.021192
-0.0356896
-0.0554364
-0.0795387
-0.103174
-0.120025
-0.124353
-0.11599
-0.0982355
-0.076867
-0.0559186
-0.0378755
-0.0229146
-0.011035
-0.00162386
0.00594651
0.0116371
0.0164119
0.0182496
0.0199159
0.0185962
0.0176103
0.0145686
0.0127173
0.00876516
0.00257494
-0.0420911
-0.0700934
-0.100262
-0.128873
-0.150919
-0.162002
-0.160557
-0.148444
-0.129602
-0.108073
-0.0868045
-0.0674072
-0.0504728
-0.0360341
-0.0238582
-0.0136074
-0.0050015
0.00216076
0.00810089
0.0130408
0.0169729
0.0196186
0.0206212
0.020029
0.0181315
0.0151104
0.0109215
0.0109215
)
;
    }
    procBoundary15to14
    {
        type            processor;
        value           nonuniform List<scalar> 
35
(
-0.0144629
-0.011233
-0.00850424
-0.00624318
-0.00435152
-0.00267391
-0.00102583
0.000744146
0.00268684
0.00472894
0.0067159
0.00848773
0.009936
0.01102
0.011752
0.0121731
0.0123336
0.0122828
0.012065
0.0117182
0.0112745
0.0107613
0.0102018
0.0096152
0.00901786
0.00842555
0.00785066
0.00730378
0.00679524
0.00633376
0.00592734
0.00558463
0.00531375
0.0051236
0.00502359
)
;
    }
}


// ************************************************************************* //
