/*--------------------------------*- C++ -*----------------------------------*\
  =========                 |
  \\      /  F ield         | OpenFOAM: The Open Source CFD Toolbox
   \\    /   O peration     | Website:  https://openfoam.org
    \\  /    A nd           | Version:  7
     \\/     M anipulation  |
\*---------------------------------------------------------------------------*/
FoamFile
{
    version     2.0;
    format      ascii;
    class       volScalarField;
    location    "1";
    object      p;
}
// * * * * * * * * * * * * * * * * * * * * * * * * * * * * * * * * * * * * * //

dimensions      [1 -1 -2 0 0 0 0];

internalField   nonuniform List<scalar> 
4032
(
1
1
1
1
1
1
1
1
1
1
1
1
1
4.89667
10.7941
11.0616
11.1942
11.3694
11.5494
11.7146
11.8611
11.9615
12.0435
12.106
1
1
1
1
1
1
1
1
1
1
1
1
1
4.72883
10.6804
11.0346
11.1679
11.3386
11.511
11.6704
11.8108
11.9065
11.9833
12.0436
1
1
1
1
1
1
1
1
1
1
1
1
1
4.37156
10.527
10.9854
11.1175
11.2821
11.444
11.5983
11.7346
11.8314
11.9039
11.9642
1
1
1
1
1
1
1
1
1
1
1
1
1
3.84567
10.2767
10.9228
11.0462
11.1974
11.3419
11.496
11.6331
11.7312
11.7906
11.8338
1
1
1
1
1
1
1
1
1
1
1
1
1
3.21976
9.90015
10.8682
10.9795
11.0928
11.2077
11.348
11.4652
11.5526
11.6025
11.6596
1
1
1
1
1
1
1
1
1
1
1
1
1
2.46752
9.28853
10.7963
10.8617
10.9417
11.0294
11.1565
11.2631
11.3336
11.3431
11.2916
1
1
1
1
1
1
1
1
1
1
1
1
1
1.71986
8.47415
10.7367
10.734
10.8054
10.8641
10.9323
10.9614
10.9173
10.8256
10.7521
1
1
1
1
1
1
1
1
1
1
1
1
1
1.10951
7.22891
10.5663
10.5148
10.5625
10.5732
10.5947
10.5737
10.4988
10.3558
10.3138
1
1
1
1
1
1
1
1
1
1
1
1
1
1.00169
5.61405
10.162
10.3477
10.393
10.3438
10.2999
10.1988
9.94181
9.13094
7.22378
1
1
1
1
1
1
1
1
1
1
1
1
1
1
3.79709
9.52823
10.1953
10.209
10.1124
9.98939
9.77077
9.30172
8.44692
6.33929
1
1
1
1
1
1
1
1
1
1
1
1
1
1
2.07013
8.61483
10.1297
9.99136
9.82328
9.60679
9.3144
8.75326
7.89788
5.98348
1
1
1
1
1
1
1
1
1
1
1
1
1
1
1.10185
6.88019
9.76635
9.63627
9.46893
9.20939
8.8755
8.34456
7.40888
5.87953
1
1
1
1
1
1
1
1
1
1
1
1
1
1
1.00093
4.2963
9.0598
9.43295
9.30023
9.0076
8.59981
8.03387
7.10189
5.93632
1
1
1
1
1
1
1
1
1
1
1
1
1
1
0.999998
1.88377
8.02266
9.31849
9.084
8.79133
8.35957
7.76534
6.9324
5.99638
1
1
1
1
1
1
1
1
1
1
1
1
1
1
1
1.05982
5.72698
8.86342
8.81938
8.56437
8.14899
7.57796
6.85104
6.06893
1
1
1
1
1
1
1
1
1
1
1
1
1
1
1
1.00026
2.63668
8.0353
8.74856
8.4127
7.98977
7.43885
6.78134
6.10133
1
1
1
1
1
1
1
1
1
1
1
1
1
1
1
1
1.17182
5.98998
8.50402
8.21177
7.82508
7.32397
6.73208
6.12735
1
1
1
1
1
1
1
1
1
1
1
1
1
1
1
1
1.00218
2.71804
7.56665
8.17602
7.75382
7.27722
6.73375
6.18132
1
1
1
1
1
1
1
1
1
1
1
1
1
1
1
1
1
1.18561
5.52297
7.97251
7.62281
7.17033
6.68883
6.19129
1
1
1
1
1
1
1
1
1
1
1
1
1
1
1
1
1
1.00265
2.30798
6.83941
7.60019
7.15333
6.71643
6.24693
1
1
1
1
1
1
1
1
1
1
1
1
1
1
1
1
1
1.00001
1.1133
4.35719
7.30428
7.11167
6.69911
6.26716
1
1
1
1
1
1
1
1
1
1
1
1
1
1
1
1
1
1
1.00136
1.724
5.7757
7.21349
6.75612
6.35298
1
1
1
1
1
1
1
1
1
1
1
1
1
1
1
1
1
1
1
1.03679
2.82883
6.33445
6.81446
6.38858
1
1
1
1
1
1
1
1
1
1
1
1
1
1
1
1
1
1
1
1.00032
1.21635
4.04834
6.42106
6.43975
1
1
1
1
1
1
1
1
1
1
1
1
1
1
1
1
1
1
1
1
1.00474
1.64361
4.80069
6.35684
1
1
1
1
1
1
1
1
1
1
1
1
1
1
1
1
1
1
1
1
1.00002
1.03097
2.16064
5.21823
1
1
1
1
1
1
1
1
1
1
1
1
1
1
1
1
1
1
1
1
1
1.00029
1.09431
2.65839
1
1
1
1
1
1
1
1
1
1
1
1
1
1
1
1
1
1
1
1
1
1
1.00149
1.19371
1
1
1
1
1
1
1
1
1
1
1
1
1
1
1
1
1
1
1
1
1
1
1
1.00451
1
1
1
1
1
1
1
1
1
1
1
1
1
1
1
1
1
1
1
1
1
1
1
1.00002
1
1
1
1
1
1
1
1
1
1
1
1
1
1
1
1
1
1
1
1
1
1
1
1
1
1
1
1
1
1
1
1
1
1
1
1
1
1
1
1
1
1
1
1
1
1
1
1
1
1
1
1
1
1
1
1
1
1
1
1
1
1
1
1
1
1
1
1
1
1
1
1
1
1
1
1
1
1
1
1
1
1
1
1
1
1
1
1
1
1
1
1
1
1
1
1
1
1
1
1
1
1
1
1
1
1
1
1
1
1
1
1
1
1
1
1
1
1
1
1
1
1
1
1
1
1
1
1
1
1
1
1
1
1
1
1
1
1
1
1
1
1
1
1
1
1
1
1
1
1
1
1
1
1
1
1
1
1
1
1
1
1
1
1
1
1
1
1
1
1
1
1
1
1
1
1
1
1
1
1
1
1
1
1
1
1
1
1
1
1
1
1
1
1
1
1
1
1
1
1
1
1
1
1
1
1
1
1
1
1
1
1
1
1
1
1
1
1
1
1
1
1
1
1
1
1
1
1
1
1
1
1
1
1
1
1
1
1
1
1
1.61214
0.488562
0.198285
0.143438
0.160916
0.243944
0.355764
0.45369
0.602055
0.761997
0.906403
0.981381
1.0285
1.0866
1.13151
1.13132
1.13486
1.14896
1.16063
1.16268
1.16102
1.1591
1.14426
1.11659
1.10095
1.09538
1.09296
1.09122
1.08937
1.08974
1.08565
1.08122
1.07465
1.05947
1.04724
1.04276
1.03839
1.03199
1.0232
1.01458
1.00488
0.993915
0.978478
0.956731
0.945165
0.942122
0.940311
0.939567
0.940234
0.94112
0.939032
0.932869
0.922393
0.908612
0.895549
0.884823
0.875784
0.868791
0.862012
0.852797
0.839596
0.827311
0.824687
0.824242
0.823939
0.824241
0.824924
0.82606
0.826433
0.823552
0.823277
0.83053
0.841707
0.857785
0.872261
0.878633
0.880799
0.879156
0.861763
0.850203
0.85524
0.864513
0.878439
0.899688
0.913649
0.914848
0.914201
0.902672
0.885834
0.885001
0.886369
0.887703
0.893072
0.907743
0.939323
0.941056
2.74551
1.45571
1.00904
0.70071
0.533126
0.540526
0.527499
0.496068
0.496316
0.530549
0.584024
0.674847
0.770745
0.85779
0.942116
0.999775
1.03339
1.06164
1.094
1.10723
1.11208
1.12664
1.12542
1.11042
1.0988
1.09737
1.09779
1.09636
1.09309
1.09224
1.08478
1.07969
1.07442
1.0635
1.05096
1.04253
1.03697
1.0294
1.01817
1.00563
0.99449
0.98497
0.974361
0.960937
0.953875
0.950631
0.947495
0.944568
0.941417
0.936929
0.929761
0.919772
0.90618
0.891685
0.885157
0.880499
0.874659
0.868502
0.862154
0.855221
0.847163
0.836559
0.827847
0.826113
0.826448
0.828312
0.831466
0.833944
0.836176
0.836774
0.835354
0.838088
0.845078
0.855712
0.864614
0.868399
0.871194
0.872032
0.86763
0.862124
0.864692
0.871099
0.880318
0.894422
0.905918
0.910966
0.911987
0.908395
0.898627
0.896148
0.896037
0.895741
0.899716
0.911128
0.929412
0.93352
3.69407
2.37801
1.69865
1.2756
0.992097
0.849067
0.7577
0.638708
0.550236
0.55877
0.572063
0.604781
0.666886
0.733221
0.803087
0.876011
0.931393
0.977457
1.03075
1.0742
1.09767
1.12457
1.1485
1.14379
1.13203
1.13322
1.1314
1.12088
1.10323
1.09226
1.08316
1.07148
1.06292
1.05364
1.04403
1.03854
1.03408
1.03271
1.02968
1.02178
1.01079
0.996855
0.97599
0.955781
0.951977
0.950356
0.947347
0.945196
0.944844
0.943922
0.936994
0.921101
0.899181
0.882277
0.876384
0.872442
0.867157
0.861294
0.855945
0.851418
0.84714
0.839167
0.826146
0.816937
0.815828
0.817819
0.822402
0.828311
0.833302
0.838753
0.846243
0.855136
0.861349
0.86272
0.859505
0.854273
0.851493
0.851511
0.856272
0.864257
0.874509
0.885875
0.892006
0.89476
0.895825
0.895772
0.895499
0.897266
0.900028
0.903763
0.90832
0.9122
0.916695
0.921669
0.925961
0.922964
4.24774
3.15489
2.42122
1.85324
1.45688
1.262
1.09947
0.937433
0.822707
0.786735
0.734203
0.662282
0.659061
0.670377
0.696275
0.732523
0.790708
0.852827
0.910806
0.96033
0.995557
1.0252
1.07072
1.09268
1.10731
1.13127
1.14357
1.14014
1.1282
1.11385
1.09925
1.07955
1.06332
1.0506
1.03958
1.03263
1.02293
1.01903
1.02034
1.01819
1.01177
1.00123
0.985024
0.964139
0.950796
0.944277
0.939596
0.938023
0.940052
0.943202
0.940689
0.924777
0.897389
0.88438
0.880963
0.877207
0.872318
0.866919
0.861535
0.856855
0.853097
0.848295
0.837944
0.825425
0.819657
0.820008
0.822301
0.825307
0.829308
0.835544
0.844612
0.854031
0.859885
0.858728
0.854928
0.854908
0.856875
0.85787
0.858474
0.864529
0.875458
0.887136
0.89361
0.89589
0.898465
0.898452
0.895938
0.895146
0.896156
0.898321
0.903169
0.909759
0.916037
0.921996
0.92387
0.920247
4.68576
3.69644
2.9987
2.41256
1.95306
1.68835
1.45616
1.21625
1.07483
0.996106
0.910243
0.805917
0.755924
0.740941
0.711121
0.711318
0.724161
0.745607
0.776391
0.814826
0.865509
0.911832
0.972636
1.01237
1.03886
1.06457
1.08568
1.08862
1.08413
1.08322
1.08923
1.09517
1.09228
1.08388
1.07094
1.05485
1.03186
1.01254
1.00505
0.999502
0.992941
0.985874
0.977794
0.969999
0.961474
0.954929
0.952114
0.950336
0.948416
0.946512
0.939494
0.921277
0.892676
0.878937
0.876075
0.87349
0.871255
0.870481
0.866669
0.862707
0.860422
0.85781
0.848969
0.834661
0.8257
0.825564
0.828441
0.831778
0.836818
0.843578
0.849083
0.84865
0.840291
0.833094
0.834425
0.840642
0.851372
0.861911
0.869311
0.876252
0.881351
0.880528
0.877577
0.878084
0.879989
0.884495
0.892232
0.898673
0.899744
0.898875
0.899311
0.90134
0.903115
0.906098
0.907552
0.915005
4.98256
4.13346
3.47392
2.87393
2.39925
2.07233
1.80965
1.55373
1.3786
1.24963
1.12388
0.999469
0.937832
0.90136
0.843153
0.778412
0.770462
0.765139
0.740985
0.734641
0.747039
0.778053
0.826181
0.885505
0.93358
0.972638
1.01482
1.0367
1.03868
1.04301
1.05354
1.06611
1.0695
1.0688
1.06998
1.06672
1.0511
1.02677
1.00828
0.997124
0.986264
0.975707
0.968641
0.962997
0.957995
0.953674
0.951008
0.948771
0.945083
0.941464
0.933696
0.920278
0.901437
0.884113
0.87666
0.873361
0.871218
0.871899
0.8697
0.866504
0.865591
0.86399
0.853421
0.835299
0.82491
0.825037
0.827856
0.831674
0.836942
0.840778
0.838343
0.827398
0.816539
0.815629
0.820958
0.831461
0.849937
0.866758
0.875922
0.882229
0.884521
0.875317
0.866097
0.865673
0.866838
0.872702
0.885144
0.894503
0.896869
0.89554
0.895036
0.895015
0.893639
0.891927
0.891116
0.902995
5.22776
4.46321
3.84163
3.27165
2.80372
2.45407
2.13128
1.82258
1.64676
1.50641
1.36931
1.20702
1.11932
1.05211
0.974321
0.877842
0.834761
0.813571
0.776819
0.74487
0.746866
0.760951
0.771284
0.781082
0.79921
0.828815
0.870176
0.918207
0.9553
0.973711
0.994266
1.02856
1.03686
1.04475
1.05438
1.05504
1.04591
1.02842
1.01853
1.01161
1.00253
0.988053
0.975285
0.965734
0.957584
0.949756
0.940407
0.932675
0.928186
0.925177
0.923161
0.919569
0.914286
0.904984
0.889285
0.879742
0.875296
0.871584
0.867177
0.862331
0.858234
0.853633
0.843946
0.83046
0.825984
0.828395
0.832023
0.833772
0.832014
0.826225
0.814947
0.804657
0.805072
0.811571
0.823258
0.844409
0.871605
0.889069
0.89868
0.906495
0.908635
0.901289
0.902466
0.906482
0.908656
0.915367
0.922753
0.921452
0.91792
0.913302
0.907341
0.903261
0.900412
0.8974
0.895643
0.905569
5.38133
4.71714
4.13884
3.59361
3.13927
2.78385
2.44496
2.12347
1.90613
1.73329
1.57609
1.41598
1.31436
1.23765
1.15499
1.04062
0.966765
0.935757
0.894738
0.832373
0.806211
0.806912
0.792673
0.770448
0.756681
0.754927
0.763236
0.781103
0.808936
0.851986
0.898163
0.944143
0.977539
0.995834
1.01573
1.03362
1.0337
1.02174
1.00629
1.00531
1.00457
0.998224
0.987287
0.978015
0.96833
0.956359
0.936738
0.913862
0.909273
0.909836
0.911596
0.916949
0.919509
0.91739
0.907564
0.890361
0.878865
0.870779
0.862672
0.854508
0.84683
0.840481
0.834215
0.829863
0.831791
0.833364
0.833381
0.832606
0.82777
0.817817
0.820273
0.830939
0.851227
0.881666
0.920235
0.965255
1.00403
1.02854
1.05045
1.07115
1.08785
1.10509
1.12262
1.14226
1.15958
1.16198
1.15233
1.13195
1.10746
1.08392
1.06069
1.03707
1.01922
1.00444
0.989189
0.971993
5.49787
4.92079
4.38965
3.86111
3.4226
3.07517
2.71589
2.38002
2.16053
1.97489
1.7946
1.62067
1.49125
1.39334
1.31329
1.20881
1.11918
1.0703
1.01596
0.940107
0.880884
0.864342
0.835921
0.794748
0.763402
0.756955
0.759981
0.76096
0.758177
0.764578
0.79116
0.822491
0.853524
0.882672
0.913618
0.952486
0.997174
1.00773
0.996937
0.99695
0.998614
0.996196
0.98656
0.980607
0.975616
0.96571
0.945924
0.917755
0.905314
0.903574
0.904243
0.910348
0.917352
0.91752
0.913105
0.898243
0.878898
0.868057
0.860193
0.851677
0.842488
0.835618
0.836591
0.841528
0.848207
0.852894
0.853629
0.859892
0.879846
0.919846
0.97697
1.04701
1.1274
1.21764
1.30032
1.36297
1.3997
1.41581
1.42367
1.43086
1.43776
1.44042
1.44457
1.4645
1.50263
1.5227
1.51965
1.50189
1.47089
1.43652
1.39793
1.35613
1.33136
1.31391
1.29641
1.24713
5.60386
5.07409
4.58189
4.09525
3.66901
3.31422
2.9695
2.653
2.40128
2.18126
1.9839
1.83642
1.69597
1.56937
1.47615
1.36001
1.24803
1.19455
1.14941
1.0789
1.00063
0.972627
0.942124
0.892496
0.824844
0.796643
0.797759
0.786923
0.763195
0.754444
0.758003
0.756641
0.750428
0.75594
0.779034
0.82134
0.87956
0.938308
0.963132
0.979135
0.984306
0.982157
0.972546
0.969017
0.967557
0.962051
0.951464
0.936743
0.921438
0.910094
0.907789
0.908131
0.908865
0.907095
0.904599
0.895121
0.875617
0.86496
0.86159
0.857793
0.85607
0.86278
0.88395
0.923724
0.973654
1.02548
1.07817
1.13727
1.20763
1.28751
1.36828
1.44438
1.5159
1.58019
1.63929
1.68633
1.69724
1.69516
1.6867
1.66038
1.6357
1.62158
1.61
1.6135
1.63321
1.66292
1.68421
1.68324
1.67035
1.64825
1.6116
1.5803
1.56788
1.56232
1.5633
1.53187
5.67328
5.19077
4.73678
4.28041
3.87826
3.52822
3.17697
2.87755
2.63259
2.39884
2.16697
2.01658
1.87395
1.72939
1.63326
1.5372
1.40743
1.31789
1.26448
1.19188
1.10025
1.06362
1.04063
0.996956
0.919517
0.862234
0.849541
0.826748
0.78901
0.762429
0.761916
0.762341
0.746327
0.727342
0.72553
0.733999
0.757557
0.801605
0.858474
0.896369
0.925572
0.937
0.93304
0.93465
0.939883
0.94516
0.948201
0.945088
0.936212
0.927852
0.919307
0.912481
0.905459
0.898397
0.896413
0.890972
0.877508
0.8757
0.884544
0.9105
0.961852
1.04682
1.15995
1.28198
1.38711
1.47411
1.54325
1.59429
1.63075
1.64885
1.65866
1.67016
1.68319
1.69463
1.71206
1.73383
1.73623
1.73168
1.72493
1.69908
1.66701
1.65191
1.64016
1.63027
1.62856
1.64305
1.66436
1.6815
1.68146
1.66577
1.64159
1.62481
1.61574
1.61271
1.62136
1.61282
5.76733
5.30854
4.87321
4.45516
4.06997
3.71285
3.37254
3.08411
2.83108
2.58244
2.35108
2.20445
2.06293
1.88973
1.75456
1.66455
1.5468
1.44882
1.39278
1.32811
1.22172
1.15416
1.13093
1.09206
1.02412
0.958901
0.936569
0.910528
0.866559
0.817278
0.809473
0.80271
0.777155
0.739868
0.723859
0.722368
0.720992
0.720971
0.733976
0.763918
0.802801
0.84358
0.880053
0.892162
0.902815
0.92228
0.932233
0.929407
0.923738
0.924843
0.923427
0.920448
0.915137
0.909412
0.908755
0.92447
0.96444
1.03148
1.12967
1.25536
1.39255
1.51888
1.61387
1.67965
1.73167
1.76528
1.7999
1.81254
1.80227
1.7751
1.73558
1.70396
1.68212
1.66954
1.6652
1.67371
1.68893
1.69496
1.69102
1.669
1.63884
1.62115
1.61167
1.59719
1.57551
1.56406
1.57753
1.6173
1.63486
1.62052
1.60172
1.58875
1.58225
1.58229
1.58097
1.57814
5.82405
5.39524
4.97918
4.58492
4.22166
3.87263
3.54352
3.26381
3.01601
2.76785
2.53978
2.37853
2.22312
2.03999
1.90913
1.81468
1.69014
1.55506
1.49652
1.43941
1.35173
1.27347
1.2334
1.18765
1.11203
1.03102
1.00507
0.981707
0.940713
0.883604
0.864845
0.85386
0.824675
0.773118
0.734888
0.729286
0.727218
0.715722
0.713226
0.717827
0.732395
0.744967
0.760668
0.788341
0.817384
0.857815
0.89297
0.893746
0.898701
0.909961
0.920619
0.929473
0.946583
0.989906
1.09281
1.25266
1.41805
1.55676
1.68137
1.76901
1.83128
1.83812
1.83123
1.82322
1.82262
1.83606
1.84378
1.83239
1.80766
1.76789
1.71023
1.65813
1.62718
1.60394
1.59645
1.60331
1.61781
1.64371
1.64797
1.62623
1.59234
1.56624
1.5551
1.54084
1.51383
1.49863
1.50627
1.54298
1.57638
1.5686
1.54892
1.5343
1.52314
1.51871
1.51356
1.51921
5.93272
5.51384
5.11082
4.7357
4.38437
4.04441
3.72578
3.44481
3.19129
2.93011
2.72203
2.56215
2.39887
2.19631
2.04018
1.94384
1.82477
1.6968
1.62199
1.55571
1.45318
1.35443
1.32141
1.28467
1.21721
1.12963
1.08907
1.06225
1.02065
0.955009
0.929209
0.923062
0.89904
0.846305
0.793426
0.783909
0.775992
0.752356
0.72305
0.721989
0.724175
0.711676
0.696979
0.699795
0.715324
0.748566
0.793146
0.840987
0.881753
0.907404
0.955279
1.05539
1.21227
1.40878
1.63967
1.82217
1.91368
1.96147
1.99315
1.98602
1.95265
1.89792
1.86312
1.83712
1.83002
1.83236
1.81595
1.79077
1.75364
1.69944
1.63896
1.59585
1.56897
1.54749
1.5384
1.55157
1.58621
1.59154
1.57382
1.55371
1.53069
1.49908
1.48232
1.47782
1.46316
1.45103
1.46386
1.50526
1.53081
1.51758
1.49601
1.47577
1.4587
1.45159
1.45147
1.47577
5.9794
5.58937
5.21601
4.85604
4.50386
4.17831
3.89068
3.62731
3.38223
3.11401
2.88155
2.71548
2.56229
2.37053
2.21729
2.09313
1.95874
1.80566
1.73041
1.67902
1.58793
1.46384
1.40173
1.35789
1.2966
1.22073
1.18219
1.15443
1.11082
1.03671
0.988995
0.977897
0.954838
0.906381
0.851107
0.838948
0.829135
0.80456
0.764987
0.742107
0.732831
0.7128
0.691865
0.689526
0.691691
0.699291
0.71676
0.756423
0.832409
0.986785
1.22631
1.51623
1.73711
1.89026
1.9992
2.04346
2.07144
2.09045
2.07982
2.03714
1.954
1.88083
1.8413
1.81334
1.78461
1.74647
1.71905
1.69308
1.64968
1.60358
1.56553
1.54713
1.53637
1.51891
1.5096
1.5101
1.512
1.50714
1.48917
1.47543
1.46261
1.4398
1.42637
1.42848
1.43095
1.42866
1.43296
1.43858
1.44934
1.44402
1.42533
1.41096
1.40537
1.4037
1.41656
1.46223
6.04851
5.66276
5.3093
4.96231
4.63425
4.33259
4.0258
3.74068
3.51592
3.29694
3.05747
2.85195
2.68763
2.51164
2.35477
2.2313
2.10797
1.95098
1.83962
1.7752
1.68979
1.57743
1.50667
1.45654
1.39087
1.29849
1.25658
1.23495
1.19504
1.12638
1.06673
1.048
1.0247
0.97813
0.9159
0.899975
0.892282
0.86987
0.828916
0.79592
0.777947
0.754666
0.72185
0.708408
0.71268
0.734496
0.805615
0.96974
1.19402
1.42896
1.66595
1.80303
1.88532
1.93306
1.9471
1.95519
1.97826
2.00113
1.9948
1.94734
1.89157
1.84063
1.81271
1.78552
1.74077
1.69068
1.65741
1.62474
1.57547
1.53548
1.52392
1.51594
1.50125
1.47419
1.45571
1.4489
1.44169
1.43493
1.42531
1.4128
1.4059
1.39299
1.37941
1.38543
1.40256
1.40424
1.39446
1.3816
1.37432
1.38194
1.37899
1.36748
1.36723
1.38617
1.4209
1.41774
6.18974
5.7903
5.41501
5.07398
4.74432
4.45265
4.1773
3.90049
3.65468
3.44586
3.21665
2.98988
2.81507
2.65979
2.48708
2.34329
2.23466
2.09832
1.97634
1.89042
1.79589
1.66607
1.58625
1.54777
1.49248
1.40351
1.3457
1.31313
1.26478
1.19393
1.13017
1.11461
1.09691
1.05509
0.990173
0.964361
0.950845
0.924435
0.875827
0.836625
0.819099
0.800225
0.772781
0.788009
0.859664
1.02611
1.2678
1.50888
1.64632
1.74028
1.7902
1.79747
1.78491
1.76672
1.75498
1.74042
1.71964
1.72684
1.74899
1.73686
1.7141
1.73554
1.75008
1.72562
1.67
1.63217
1.60545
1.57216
1.52364
1.50179
1.49279
1.48469
1.47091
1.44409
1.40738
1.39233
1.38307
1.37309
1.36505
1.36978
1.36939
1.35909
1.34436
1.34043
1.36175
1.36831
1.34971
1.33206
1.32303
1.32603
1.33677
1.3512
1.37044
1.384
1.3756
1.35578
6.14743
5.95062
5.56372
5.20318
4.89292
4.60369
4.30642
4.00386
3.77604
3.59584
3.39248
3.14276
2.93215
2.78911
2.62847
2.4673
2.34726
2.2242
2.09086
1.9971
1.91297
1.79817
1.69153
1.6389
1.58
1.48709
1.42835
1.3958
1.35111
1.27685
1.19515
1.17575
1.16009
1.12249
1.06316
1.03391
1.01661
0.98729
0.935054
0.892504
0.88539
0.919629
1.01764
1.20916
1.47786
1.71349
1.90458
1.93389
1.88178
1.85
1.82081
1.78332
1.7354
1.67826
1.62792
1.56565
1.50644
1.48508
1.48928
1.51572
1.52099
1.54802
1.59185
1.58539
1.56241
1.55376
1.55086
1.53233
1.51358
1.50078
1.48199
1.46212
1.44507
1.41194
1.36596
1.34444
1.33135
1.32009
1.31795
1.33268
1.33237
1.32111
1.30937
1.2988
1.29496
1.30191
1.30389
1.29363
1.286
1.28978
1.31709
1.33608
1.33082
1.3243
1.31718
1.30394
5.37808
5.93294
5.73324
5.35203
5.0178
4.73984
4.46918
4.18976
3.91299
3.68025
3.49866
3.29744
3.09831
2.93091
2.76082
2.57982
2.45176
2.35149
2.21793
2.09506
2.00931
1.90785
1.80159
1.74415
1.68737
1.59427
1.50349
1.46555
1.4221
1.35389
1.27358
1.24935
1.2299
1.19057
1.12576
1.09143
1.07235
1.05164
1.01997
1.04371
1.15385
1.40581
1.71519
1.93551
2.11952
2.20717
2.18538
2.0936
1.97341
1.89014
1.81524
1.73586
1.66375
1.60849
1.5609
1.50287
1.44538
1.41338
1.39386
1.38692
1.38077
1.37069
1.38727
1.4038
1.40745
1.41928
1.44421
1.46954
1.48825
1.48398
1.46256
1.43602
1.39691
1.34909
1.32
1.30584
1.29342
1.28306
1.28648
1.29807
1.2894
1.27696
1.26358
1.24612
1.23442
1.23175
1.24026
1.25281
1.26681
1.28864
1.29215
1.28543
1.27621
1.26737
1.26188
1.2589
3.04876
5.37271
5.74579
5.54521
5.18847
4.87037
4.58976
4.33291
4.08005
3.84076
3.62268
3.40092
3.21812
3.06538
2.91251
2.73251
2.56283
2.45524
2.33126
2.20813
2.13017
2.04126
1.90232
1.81709
1.77119
1.69519
1.60674
1.55612
1.50767
1.43165
1.33868
1.31592
1.29446
1.25626
1.19689
1.16239
1.1521
1.19242
1.34225
1.60798
1.96821
2.27744
2.37016
2.41866
2.41815
2.36735
2.26191
2.12838
2.00858
1.90333
1.81073
1.72855
1.66338
1.61085
1.55597
1.49686
1.44262
1.39892
1.36634
1.34742
1.33514
1.31737
1.29461
1.28353
1.27419
1.27631
1.30005
1.35464
1.40231
1.4105
1.39849
1.36358
1.31011
1.28539
1.28036
1.273
1.26279
1.25702
1.27117
1.27882
1.26546
1.24206
1.21728
1.19828
1.18461
1.17462
1.17337
1.18402
1.20611
1.23565
1.24451
1.23797
1.22696
1.21776
1.21258
1.21561
1.30732
3.28474
5.28361
5.57303
5.39395
5.04352
4.72063
4.47837
4.22996
3.96729
3.74121
3.55727
3.37449
3.18501
3.01128
2.84536
2.71408
2.5998
2.46079
2.29611
2.21424
2.15645
2.04997
1.93236
1.86043
1.77351
1.67249
1.62893
1.59305
1.52677
1.43239
1.39019
1.3587
1.32009
1.29897
1.34921
1.54049
1.86755
2.25456
2.55803
2.73859
2.70069
2.63573
2.58234
2.49054
2.37131
2.23764
2.11927
2.02183
1.92784
1.83657
1.75747
1.69413
1.63869
1.5969
1.56703
1.52648
1.46909
1.40684
1.35873
1.32667
1.29629
1.26436
1.24802
1.23673
1.23068
1.2268
1.23391
1.2546
1.27214
1.27024
1.25029
1.21906
1.20178
1.19831
1.19876
1.19925
1.20977
1.2249
1.22134
1.20292
1.18069
1.16786
1.15863
1.14604
1.1318
1.12402
1.12608
1.14749
1.18907
1.20042
1.19668
1.18912
1.17759
1.16786
1.17265
1.00952
1.40437
3.37254
5.16912
5.39627
5.2436
4.90226
4.59995
4.36885
4.14213
3.8889
3.66125
3.50033
3.33901
3.1636
2.96102
2.82113
2.71593
2.58746
2.44514
2.32466
2.248
2.14139
2.02717
1.95922
1.88471
1.7725
1.70745
1.65948
1.59184
1.50872
1.47729
1.46864
1.53415
1.76497
2.18836
2.6122
2.95844
3.12406
3.08043
2.94035
2.81983
2.72087
2.61555
2.49131
2.34925
2.22597
2.13991
2.06534
1.98284
1.89426
1.81113
1.74193
1.6832
1.64834
1.62277
1.58808
1.53542
1.46829
1.39727
1.33542
1.29576
1.26662
1.24373
1.22882
1.2122
1.19803
1.19195
1.18289
1.17702
1.17155
1.15516
1.13182
1.11708
1.11111
1.11484
1.1301
1.15609
1.1733
1.16726
1.14596
1.12228
1.11273
1.10997
1.10382
1.09211
1.08622
1.08755
1.10255
1.13236
1.14332
1.14375
1.14384
1.13729
1.13135
1.14396
1.00006
1.01524
1.46061
3.37666
5.01661
5.22167
5.10316
4.81501
4.50776
4.26003
4.03751
3.82715
3.63244
3.45745
3.27976
3.09761
2.96937
2.83788
2.69693
2.53482
2.43086
2.363
2.26134
2.1156
2.03241
1.97051
1.87509
1.80708
1.7561
1.69005
1.63134
1.68
1.9339
2.45181
2.98383
3.40269
3.55413
3.50692
3.34924
3.14151
2.98127
2.85711
2.72994
2.5957
2.4539
2.31822
2.24575
2.19669
2.14328
2.07082
1.9687
1.865
1.79572
1.74674
1.70717
1.67016
1.62992
1.5841
1.5313
1.46999
1.40156
1.32812
1.27467
1.25287
1.23579
1.21432
1.19097
1.17055
1.1529
1.1395
1.12491
1.09894
1.07644
1.06772
1.05958
1.05478
1.06145
1.07934
1.08589
1.07622
1.05864
1.04573
1.03777
1.03475
1.03726
1.04083
1.04755
1.05793
1.06477
1.07008
1.07373
1.07488
1.08101
1.08849
1.09067
1.11063
1
1.00011
1.01957
1.47339
3.32812
4.76466
5.0741
5.00647
4.73001
4.43022
4.16855
3.94874
3.76786
3.598
3.40506
3.22737
3.09012
2.95061
2.8189
2.66737
2.54205
2.46249
2.35677
2.22286
2.13825
2.07442
1.95636
1.88478
1.88394
1.96625
2.25356
2.77052
3.31574
3.73896
3.96858
3.93729
3.79344
3.57832
3.37432
3.20613
3.05477
2.90616
2.75605
2.58654
2.43099
2.36137
2.31232
2.26165
2.20393
2.12811
2.02863
1.92752
1.84981
1.78861
1.73652
1.69774
1.66004
1.61276
1.55364
1.48497
1.42388
1.38165
1.34688
1.31205
1.27789
1.24567
1.21386
1.18355
1.15395
1.12904
1.10759
1.0761
1.04912
1.04128
1.03379
1.02564
1.02304
1.02315
1.01575
1.00388
0.987877
0.977065
0.969875
0.964626
0.966476
0.977737
0.997399
1.01502
1.01355
1.00008
0.996626
1.00007
1.00621
1.02078
1.03622
1.06739
1
1
1.00016
1.0209
1.46099
3.12657
4.53832
4.97542
4.91747
4.65326
4.3519
4.08843
3.89379
3.71317
3.52311
3.36948
3.22469
3.07623
2.929
2.76977
2.67691
2.58144
2.46062
2.30342
2.20578
2.18189
2.12726
2.20714
2.52606
3.20308
3.92662
4.35426
4.40221
4.27666
4.15143
3.93336
3.70399
3.51111
3.35157
3.22003
3.08675
2.9365
2.7738
2.62306
2.5165
2.44716
2.38558
2.32045
2.24541
2.15675
2.06918
1.99288
1.92201
1.84881
1.77213
1.71333
1.67471
1.64071
1.59587
1.52565
1.4376
1.38847
1.36915
1.35041
1.32383
1.28441
1.23798
1.19842
1.169
1.14218
1.11123
1.07095
1.03863
1.024
1.01677
1.01166
1.00169
0.989629
0.978283
0.967554
0.949138
0.929988
0.923254
0.918605
0.917638
0.926108
0.938325
0.940132
0.933199
0.92269
0.912999
0.91428
0.919878
0.935422
0.960211
1.00202
1
1
1
1.00018
1.01959
1.40663
2.82612
4.40715
4.87379
4.80269
4.56412
4.25391
4.03286
3.82724
3.64172
3.50105
3.34946
3.20701
3.0408
2.89059
2.80131
2.67753
2.5547
2.43736
2.36448
2.47696
2.92323
3.73619
4.43617
5.10224
5.15505
4.9576
4.74985
4.47055
4.17337
3.91473
3.70509
3.54927
3.4026
3.25691
3.11165
2.96839
2.83612
2.71971
2.61274
2.5141
2.4335
2.35987
2.27857
2.19045
2.11204
2.04473
1.97622
1.89637
1.81696
1.75848
1.70683
1.65924
1.61396
1.55894
1.49552
1.44119
1.39121
1.35373
1.32582
1.30144
1.27469
1.23044
1.16901
1.12094
1.09638
1.08283
1.06417
1.03058
1.00407
0.9947
0.987185
0.975328
0.961664
0.948816
0.932311
0.908384
0.897802
0.89349
0.8914
0.895142
0.89425
0.887956
0.880571
0.87224
0.860638
0.853711
0.855857
0.864676
0.883075
0.913485
1
1
1
1
1.00016
1.01591
1.31648
2.57326
4.29924
4.69505
4.6122
4.43777
4.22395
3.97117
3.76454
3.62547
3.48256
3.33715
3.14473
3.02698
2.91316
2.79782
2.70715
2.819
3.26871
4.16225
5.16651
5.55693
5.66661
5.54924
5.26653
4.97136
4.72363
4.4861
4.21783
3.93172
3.71272
3.55984
3.43756
3.31559
3.19237
3.07175
2.93819
2.79778
2.65405
2.52517
2.43999
2.37708
2.31389
2.24443
2.16956
2.08375
1.99215
1.90058
1.82494
1.78163
1.74741
1.70578
1.64126
1.55307
1.48872
1.45484
1.42867
1.40038
1.36533
1.3246
1.28679
1.24479
1.19431
1.14706
1.11182
1.08348
1.05579
1.02911
1.01073
1.00015
0.990357
0.977973
0.96451
0.949986
0.930029
0.90312
0.889541
0.884971
0.881908
0.882845
0.881103
0.874291
0.866405
0.858494
0.849035
0.837515
0.831944
0.828931
0.83222
0.843508
1
1
1
1
1
1.00012
1.01126
1.23536
2.40721
4.0488
4.4256
4.46709
4.39987
4.18072
3.9249
3.75296
3.60515
3.45088
3.23814
3.16747
3.07529
3.19629
3.77938
4.80339
5.85991
6.37431
6.54051
6.38305
6.09802
5.71546
5.32107
4.96584
4.68719
4.46744
4.22511
3.92942
3.75717
3.63537
3.511
3.3872
3.27124
3.15588
3.02315
2.86798
2.69481
2.55701
2.47309
2.40579
2.34527
2.28461
2.21817
2.13155
2.01858
1.92423
1.8937
1.85452
1.80035
1.74026
1.65627
1.5761
1.53563
1.49868
1.44225
1.39778
1.38379
1.36869
1.34213
1.30632
1.25731
1.20243
1.16024
1.13229
1.11143
1.0932
1.07354
1.05236
1.0323
1.01386
0.996062
0.976786
0.952909
0.921088
0.900141
0.893399
0.889447
0.888179
0.88643
0.879637
0.871603
0.863256
0.851576
0.836878
0.821945
0.814461
0.811852
0.810511
1
1
1
1
1
1
1.00007
1.00762
1.18016
2.21677
3.55874
4.24484
4.42046
4.35881
4.14208
3.92675
3.73854
3.55333
3.40956
3.52567
4.19875
5.44772
6.8458
7.37899
7.23606
6.96284
6.63674
6.25431
5.90931
5.66027
5.40371
5.10761
4.81776
4.53318
4.24443
3.98426
3.82969
3.7134
3.60021
3.49193
3.37213
3.23111
3.07687
2.92012
2.77403
2.66662
2.58079
2.49375
2.40765
2.33066
2.26402
2.19111
2.09876
1.99718
1.89486
1.81126
1.74454
1.69308
1.66804
1.65351
1.62364
1.56585
1.48789
1.43056
1.3881
1.34654
1.30624
1.2621
1.21407
1.17019
1.138
1.11478
1.09393
1.0716
1.04831
1.0272
1.00888
0.99247
0.976899
0.959717
0.935851
0.898049
0.874109
0.867894
0.864344
0.862807
0.860437
0.853841
0.846185
0.837042
0.821623
0.805763
0.799654
0.796743
0.793023
0.788013
1
1
1
1
1
1
1
1.00005
1.00506
1.12934
1.86911
3.07415
4.12279
4.33654
4.24535
4.08076
3.99069
4.09438
4.66596
5.94347
7.52562
8.57588
8.76226
8.47384
7.98258
7.19903
6.45758
6.00168
5.73902
5.54382
5.34997
5.12482
4.87162
4.58786
4.29535
4.05872
3.88997
3.74757
3.61376
3.48943
3.36841
3.24079
3.09641
2.94067
2.79277
2.67351
2.58077
2.49877
2.42088
2.34805
2.27521
2.19243
2.09842
1.99842
1.89757
1.81491
1.75485
1.7165
1.6842
1.64626
1.60443
1.54927
1.48754
1.43497
1.38958
1.34773
1.30649
1.26033
1.2119
1.17234
1.1454
1.12396
1.10181
1.07584
1.04926
1.0273
1.00954
0.994303
0.979819
0.963982
0.940046
0.898027
0.87261
0.866854
0.863452
0.861898
0.85876
0.851958
0.844423
0.835179
0.819435
0.802447
0.79431
0.789908
0.785528
0.780285
1
1
1
1
1
1
1
1
1.00003
1.00264
1.07244
1.50389
2.68132
3.84177
4.223
4.76931
5.65419
6.81322
7.93289
8.65074
8.98938
9.02119
8.73182
8.19898
7.59822
7.12341
6.65582
6.23943
5.93228
5.67653
5.45332
5.24703
5.02334
4.76493
4.51548
4.30571
4.12124
3.94563
3.77341
3.61494
3.47454
3.33951
3.1931
3.03788
2.88801
2.75924
2.6548
2.56467
2.48542
2.41301
2.33886
2.25598
2.16096
2.05749
1.96278
1.89029
1.83298
1.78201
1.7331
1.68641
1.6387
1.58301
1.52308
1.46842
1.42364
1.38354
1.34159
1.29664
1.25508
1.22251
1.19627
1.17094
1.14176
1.10661
1.07631
1.05894
1.04628
1.03422
1.02183
1.0066
0.976776
0.924028
0.897515
0.89208
0.888306
0.885546
0.880385
0.872902
0.864246
0.852674
0.833438
0.8124
0.802675
0.797639
0.792927
0.787699
1
1
1
1
1
1
1
1
1
1.00001
1.00114
1.02656
1.35376
2.647
4.97113
7.50785
10.342
12.0664
12.6626
11.9054
10.7277
9.44113
8.37809
7.68333
7.2232
6.84882
6.47071
6.12147
5.81455
5.52411
5.26468
5.06088
4.86572
4.63414
4.39578
4.18812
4.01255
3.8476
3.67774
3.51348
3.3702
3.23759
3.0929
2.93545
2.7851
2.66166
2.56182
2.4723
2.39252
2.32298
2.2548
2.17629
2.08358
1.98551
1.89907
1.83135
1.77193
1.71528
1.66434
1.62174
1.58016
1.52878
1.46845
1.41221
1.36612
1.32531
1.28544
1.24633
1.20966
1.17862
1.15252
1.12689
1.09699
1.0608
1.03398
1.02101
1.01015
0.998567
0.986761
0.972167
0.941818
0.888941
0.863772
0.858693
0.855177
0.852844
0.847728
0.840159
0.831494
0.820063
0.800781
0.779783
0.770619
0.766084
0.761672
0.757162
)
;

boundaryField
{
    inlet
    {
        type            fixedValue;
        value           uniform 1;
    }
    outlet
    {
        type            zeroGradient;
    }
    bottom
    {
        type            symmetryPlane;
    }
    top
    {
        type            symmetryPlane;
    }
    obstacle
    {
        type            zeroGradient;
    }
    defaultFaces
    {
        type            empty;
    }
}


// ************************************************************************* //
