/*--------------------------------*- C++ -*----------------------------------*\
  =========                 |
  \\      /  F ield         | OpenFOAM: The Open Source CFD Toolbox
   \\    /   O peration     | Website:  https://openfoam.org
    \\  /    A nd           | Version:  7
     \\/     M anipulation  |
\*---------------------------------------------------------------------------*/
FoamFile
{
    version     2.0;
    format      ascii;
    class       volScalarField;
    location    "1";
    object      rho;
}
// * * * * * * * * * * * * * * * * * * * * * * * * * * * * * * * * * * * * * //

dimensions      [1 -3 0 0 0 0 0];

internalField   nonuniform List<scalar> 
4032
(
1.40001
1.40001
1.40001
1.40001
1.40001
1.40001
1.40001
1.40001
1.40001
1.40001
1.40001
1.40001
1.40001
3.26501
5.40084
5.52736
5.58382
5.64437
5.69293
5.72472
5.73355
5.69613
5.63439
5.60698
1.40001
1.40001
1.40001
1.40001
1.40001
1.40001
1.40001
1.40001
1.40001
1.40001
1.40001
1.40001
1.40001
3.18875
5.36043
5.51765
5.57371
5.63266
5.67867
5.70841
5.71518
5.6765
5.61349
5.58581
1.40001
1.40001
1.40001
1.40001
1.40001
1.40001
1.40001
1.40001
1.40001
1.40001
1.40001
1.40001
1.40001
3.03272
5.31119
5.5019
5.55626
5.61245
5.65451
5.68233
5.68764
5.6497
5.58556
5.55813
1.40001
1.40001
1.40001
1.40001
1.40001
1.40001
1.40001
1.40001
1.40001
1.40001
1.40001
1.40001
1.40001
2.80144
5.23645
5.48929
5.53718
5.586
5.62038
5.64737
5.65278
5.61588
5.54722
5.51375
1.40001
1.40001
1.40001
1.40001
1.40001
1.40001
1.40001
1.40001
1.40001
1.40001
1.40001
1.40001
1.40001
2.51888
5.1293
5.49344
5.52787
5.55749
5.57851
5.59892
5.59713
5.55813
5.48646
5.45719
1.40001
1.40001
1.40001
1.40001
1.40001
1.40001
1.40001
1.40001
1.40001
1.40001
1.40001
1.40001
1.40001
2.16741
4.96099
5.50747
5.50807
5.51708
5.5233
5.53662
5.53132
5.48767
5.4048
5.3419
1.40001
1.40001
1.40001
1.40001
1.40001
1.40001
1.40001
1.40001
1.40001
1.40001
1.40001
1.40001
1.40001
1.80836
4.7367
5.53061
5.49546
5.48849
5.47377
5.46216
5.43124
5.35136
5.23581
5.1646
1.40001
1.40001
1.40001
1.40001
1.40001
1.40001
1.40001
1.40001
1.40001
1.40001
1.40001
1.40001
1.40001
1.47371
4.28641
5.48946
5.43787
5.41562
5.37634
5.34562
5.30099
5.21696
5.07212
4.97623
1.40001
1.40001
1.40001
1.40001
1.40001
1.40001
1.40001
1.40001
1.40001
1.40001
1.40001
1.40001
1.40001
1.40141
3.61265
5.33729
5.37179
5.35367
5.29722
5.2444
5.17625
5.04033
4.66232
3.78183
1.40001
1.40001
1.40001
1.40001
1.40001
1.40001
1.40001
1.40001
1.40001
1.40001
1.40001
1.40001
1.40001
1.40001
2.83188
5.1265
5.32912
5.29507
5.22286
5.14405
5.03552
4.82812
4.45114
3.52778
1.40001
1.40001
1.40001
1.40001
1.40001
1.40001
1.40001
1.40001
1.40001
1.40001
1.40001
1.40001
1.40001
1.4
2.02824
4.87794
5.34852
5.25245
5.14261
5.02749
4.88762
4.64633
4.28213
3.46921
1.40001
1.40001
1.40001
1.40001
1.40001
1.40001
1.40001
1.40001
1.40001
1.40001
1.40001
1.40001
1.40001
1.40001
1.48023
4.20054
5.24824
5.15926
5.04885
4.91464
4.75499
4.52177
4.12718
3.48073
1.40001
1.40001
1.40001
1.40001
1.40001
1.40001
1.40001
1.40001
1.40001
1.40001
1.40001
1.40001
1.40001
1.40001
1.40082
3.0983
5.02899
5.09679
5.02776
4.8851
4.69431
4.44151
4.0414
3.53651
1.40001
1.40001
1.40001
1.40001
1.40001
1.40001
1.40001
1.40001
1.40001
1.40001
1.40001
1.40001
1.40001
1.40001
1.4
1.95614
4.74608
5.09702
4.98656
4.84499
4.64504
4.37787
4.01121
3.59558
1.40001
1.40001
1.40001
1.40001
1.40001
1.40001
1.40001
1.40001
1.40001
1.40001
1.40001
1.40001
1.40001
1.40001
1.4
1.44829
3.77453
4.98028
4.91831
4.79258
4.60071
4.34257
4.01615
3.66058
1.40001
1.40001
1.40001
1.40001
1.40001
1.40001
1.40001
1.40001
1.40001
1.40001
1.40001
1.40001
1.40001
1.40001
1.4
1.40023
2.37091
4.79246
4.93342
4.77905
4.57961
4.32439
4.02193
3.70572
1.40001
1.40001
1.40001
1.40001
1.40001
1.40001
1.40001
1.40001
1.40001
1.40001
1.40001
1.40001
1.40001
1.40001
1.40001
1.4
1.53406
3.95708
4.89055
4.7506
4.56022
4.31815
4.03572
3.74664
1.40001
1.40001
1.40001
1.40001
1.40001
1.40001
1.40001
1.40001
1.40001
1.40001
1.40001
1.40001
1.40001
1.40001
1.40001
1.4
1.4019
2.44199
4.65677
4.77586
4.57936
4.34429
4.07512
3.80252
1.40001
1.40001
1.40001
1.40001
1.40001
1.40001
1.40001
1.40001
1.40001
1.40001
1.40001
1.40001
1.40001
1.40001
1.40001
1.4
1.40001
1.54537
3.79663
4.7389
4.57049
4.34482
4.09996
3.84624
1.40001
1.40001
1.40001
1.40001
1.40001
1.40001
1.40001
1.40001
1.40001
1.40001
1.40001
1.40001
1.40001
1.40001
1.40001
1.40001
1.40001
1.40232
2.24632
4.40616
4.59938
4.38504
4.16167
3.919
1.40001
1.40001
1.40001
1.40001
1.40001
1.40001
1.40001
1.40001
1.40001
1.40001
1.40001
1.40001
1.40001
1.40001
1.40001
1.40001
1.40001
1.40001
1.49245
3.29547
4.53191
4.42822
4.21195
3.98077
1.40001
1.40001
1.40001
1.40001
1.40001
1.40001
1.40001
1.40001
1.40001
1.40001
1.40001
1.40001
1.40001
1.40001
1.40001
1.40001
1.40001
1.40001
1.40124
1.90844
3.97048
4.5284
4.29969
4.07814
1.40001
1.40001
1.40001
1.40001
1.40001
1.40001
1.40001
1.40001
1.40001
1.40001
1.40001
1.40001
1.40001
1.40001
1.40001
1.40001
1.40001
1.40001
1.40001
1.43133
2.55776
4.25527
4.36909
4.15191
1.40001
1.40001
1.40001
1.40001
1.40001
1.40001
1.40001
1.40001
1.40001
1.40001
1.40001
1.40001
1.40001
1.40001
1.40001
1.40001
1.40001
1.40001
1.40001
1.40031
1.57202
3.20779
4.2825
4.22238
1.40001
1.40001
1.40001
1.40001
1.40001
1.40001
1.40001
1.40001
1.40001
1.40001
1.40001
1.40001
1.40001
1.40001
1.40001
1.40001
1.40001
1.40001
1.40001
1.40001
1.40433
1.86689
3.61694
4.24189
1.40001
1.40001
1.40001
1.40001
1.40001
1.40001
1.40001
1.40001
1.40001
1.40001
1.40001
1.40001
1.40001
1.40001
1.40001
1.40001
1.40001
1.40001
1.40001
1.40001
1.40003
1.42695
2.20389
3.82503
1.40001
1.40001
1.40001
1.40001
1.40001
1.40001
1.40001
1.40001
1.40001
1.40001
1.40001
1.40001
1.40001
1.40001
1.40001
1.40001
1.40001
1.40001
1.40001
1.40001
1.40001
1.40028
1.47949
2.50872
1.40001
1.40001
1.40001
1.40001
1.40001
1.40001
1.40001
1.40001
1.40001
1.40001
1.40001
1.40001
1.40001
1.40001
1.40001
1.40001
1.40001
1.40001
1.40001
1.40001
1.40001
1.40001
1.40141
1.55817
1.40001
1.40001
1.40001
1.40001
1.40001
1.40001
1.40001
1.40001
1.40001
1.40001
1.40001
1.40001
1.40001
1.40001
1.40001
1.40001
1.40001
1.40001
1.40001
1.40001
1.40001
1.40001
1.40001
1.40419
1.40001
1.40001
1.40001
1.40001
1.40001
1.40001
1.40001
1.40001
1.40001
1.40001
1.40001
1.40001
1.40001
1.40001
1.40001
1.40001
1.40001
1.40001
1.40001
1.40001
1.40001
1.40001
1.40001
1.40003
1.40001
1.40001
1.40001
1.40001
1.40001
1.40001
1.40001
1.40001
1.40001
1.40001
1.40001
1.40001
1.40001
1.40001
1.40001
1.40001
1.40001
1.40001
1.40001
1.40001
1.40001
1.40001
1.40001
1.40001
1.40001
1.40001
1.40001
1.40001
1.40001
1.40001
1.40001
1.40001
1.40001
1.40001
1.40001
1.40001
1.40001
1.40001
1.40001
1.40001
1.40001
1.40001
1.40001
1.40001
1.40001
1.40001
1.40001
1.40001
1.40001
1.40001
1.40001
1.40001
1.40001
1.40001
1.40001
1.40001
1.40001
1.40001
1.40001
1.40001
1.40001
1.40001
1.40001
1.40001
1.40001
1.40001
1.40001
1.40001
1.40001
1.40001
1.40001
1.40001
1.40001
1.40001
1.40001
1.40001
1.40001
1.40001
1.40001
1.40001
1.40001
1.40001
1.40001
1.40001
1.40001
1.40001
1.40001
1.40001
1.40001
1.40001
1.40001
1.40001
1.40001
1.40001
1.40001
1.40001
1.40001
1.40001
1.40001
1.40001
1.40001
1.40001
1.40001
1.40001
1.40001
1.40001
1.40001
1.40001
1.40001
1.40001
1.40001
1.40001
1.40001
1.40001
1.40001
1.40001
1.40001
1.40001
1.40001
1.40001
1.40001
1.40001
1.40001
1.40001
1.40001
1.40001
1.40001
1.40001
1.40001
1.40001
1.40001
1.40001
1.40001
1.40001
1.40001
1.40001
1.40001
1.40001
1.40001
1.40001
1.40001
1.40001
1.40001
1.40001
1.40001
1.40001
1.40001
1.40001
1.40001
1.40001
1.40001
1.40001
1.40001
1.40001
1.40001
1.40001
1.40001
1.40001
1.40001
1.40001
1.40001
1.40001
1.40001
1.40001
1.40001
1.40001
1.40001
1.40001
1.40001
1.40001
1.40001
1.40001
1.40001
1.40001
1.40001
1.40001
1.40001
1.40001
1.40001
1.40001
1.40001
1.40001
1.40001
1.40001
1.40001
1.40001
1.40001
1.40001
1.40001
1.40001
1.40001
1.40001
1.40001
1.40001
1.40001
1.40001
1.40001
1.40001
1.40001
1.40001
1.40001
1.40001
1.40001
1.40001
1.40001
1.40001
1.40001
1.40001
1.40001
1.40001
1.40001
1.40001
1.40001
1.40001
1.40001
1.40001
1.40001
1.40001
1.40001
1.40001
1.40001
1.40001
1.40001
1.40001
1.40001
1.40001
1.40001
1.40001
1.40001
1.40001
1.40001
1.40001
1.40001
1.40001
1.40001
1.40001
1.40001
1.40001
1.40001
1.40001
1.23562
0.520727
0.236048
0.169438
0.186108
0.257297
0.351295
0.423715
0.512479
0.59467
0.690599
0.754216
0.794682
0.831293
0.842025
0.833777
0.836235
0.8492
0.863628
0.86801
0.866992
0.865656
0.85863
0.847469
0.842715
0.840484
0.83902
0.838
0.838448
0.842642
0.845162
0.844707
0.840712
0.829924
0.820125
0.815337
0.81186
0.807728
0.802501
0.796019
0.787721
0.77637
0.761081
0.743986
0.734964
0.731882
0.72947
0.727015
0.724108
0.72081
0.717091
0.712013
0.704595
0.696283
0.688972
0.683158
0.678368
0.673886
0.668734
0.661727
0.651975
0.643048
0.640982
0.640786
0.641154
0.641882
0.642342
0.642533
0.641313
0.636668
0.632822
0.633444
0.637904
0.647527
0.657231
0.662022
0.664053
0.66364
0.653471
0.645652
0.647198
0.652034
0.66175
0.676746
0.68738
0.690848
0.692367
0.686537
0.676515
0.676317
0.678308
0.682181
0.691759
0.713048
0.750787
0.771284
1.87353
1.16873
0.846893
0.624165
0.525203
0.544169
0.540753
0.507766
0.498364
0.514572
0.555026
0.624857
0.692416
0.746517
0.789163
0.810695
0.824887
0.843251
0.866575
0.87496
0.875711
0.882269
0.882081
0.875355
0.868992
0.867606
0.867322
0.866616
0.866303
0.8689
0.867596
0.864896
0.861095
0.853255
0.843435
0.835956
0.830367
0.824357
0.816461
0.807039
0.797507
0.787218
0.774604
0.761249
0.75383
0.749927
0.746249
0.741998
0.73645
0.729828
0.7229
0.715102
0.705579
0.696715
0.692781
0.689973
0.686584
0.682514
0.677505
0.671637
0.664593
0.656232
0.650034
0.648979
0.649213
0.650293
0.651828
0.652326
0.65183
0.648988
0.644036
0.642313
0.64438
0.650826
0.657393
0.660851
0.663236
0.66365
0.660298
0.655782
0.65578
0.658846
0.665793
0.67645
0.685931
0.691672
0.69372
0.692128
0.686538
0.685694
0.686836
0.689545
0.697805
0.716064
0.744261
0.768311
2.4143
1.72729
1.32638
1.06571
0.890386
0.800182
0.739081
0.649874
0.57868
0.587978
0.602171
0.628426
0.674647
0.722602
0.768851
0.810869
0.840295
0.86661
0.899278
0.924346
0.934492
0.947656
0.960832
0.957361
0.94756
0.946261
0.945139
0.939898
0.931683
0.926241
0.919597
0.910628
0.904374
0.898197
0.890357
0.884152
0.877291
0.872369
0.867553
0.860056
0.849861
0.836485
0.817298
0.79882
0.791976
0.787359
0.782262
0.777016
0.771798
0.766283
0.758798
0.746189
0.730729
0.719706
0.715451
0.71252
0.708825
0.704378
0.699801
0.695142
0.689824
0.682377
0.672248
0.665457
0.664035
0.663911
0.66491
0.666444
0.666627
0.665965
0.665596
0.666503
0.668367
0.669131
0.667764
0.665881
0.664928
0.664958
0.66692
0.669394
0.672576
0.678117
0.682589
0.685612
0.688841
0.691841
0.693707
0.695574
0.69777
0.700694
0.704427
0.708716
0.71573
0.727587
0.744129
0.764969
2.73799
2.18761
1.78794
1.46178
1.22415
1.10061
0.99712
0.891114
0.810806
0.785655
0.748252
0.694492
0.691772
0.699551
0.718761
0.745638
0.786939
0.829755
0.868988
0.90189
0.923963
0.942358
0.971755
0.984356
0.990776
1.00323
1.01356
1.01279
1.00723
0.998288
0.987333
0.972683
0.961531
0.953838
0.945471
0.938153
0.927531
0.920543
0.917875
0.913738
0.906336
0.895071
0.878784
0.859011
0.845062
0.836191
0.828474
0.822092
0.817353
0.813677
0.808136
0.794502
0.774003
0.763949
0.760548
0.757277
0.75336
0.748924
0.744142
0.739327
0.734128
0.727479
0.717686
0.707039
0.701229
0.698395
0.696244
0.694486
0.692901
0.691953
0.692188
0.693249
0.694113
0.69256
0.689799
0.68987
0.691413
0.69214
0.691697
0.692791
0.695842
0.700184
0.703381
0.70521
0.708041
0.710604
0.711925
0.713589
0.715928
0.718575
0.722527
0.727859
0.733895
0.742369
0.752081
0.769352
2.9747
2.49702
2.13673
1.81806
1.55498
1.39352
1.24992
1.09827
1.00493
0.950235
0.889442
0.81391
0.775626
0.763451
0.740963
0.741038
0.750408
0.766795
0.791528
0.821241
0.858858
0.89327
0.938033
0.966193
0.983772
1.00077
1.01679
1.02053
1.01837
1.0175
1.02013
1.02251
1.02046
1.01517
1.00657
0.994456
0.976059
0.958969
0.951139
0.945494
0.939113
0.931385
0.92141
0.910604
0.899478
0.890092
0.882965
0.875947
0.868642
0.862194
0.853929
0.837905
0.815581
0.804431
0.80123
0.798543
0.796407
0.795266
0.791848
0.787643
0.783279
0.777308
0.767275
0.753995
0.74474
0.740335
0.737054
0.734161
0.732234
0.731111
0.729489
0.725199
0.717121
0.710861
0.710638
0.713516
0.719903
0.725722
0.728624
0.730358
0.730568
0.727449
0.723729
0.723584
0.725265
0.729686
0.736734
0.742816
0.74589
0.748192
0.750528
0.75296
0.755113
0.758764
0.763128
0.780109
3.13605
2.73419
2.40622
2.09449
1.83401
1.64446
1.48784
1.33111
1.21876
1.13283
1.04762
0.961763
0.917268
0.890801
0.849058
0.800869
0.795355
0.792208
0.774669
0.772365
0.78282
0.808652
0.847207
0.892104
0.928277
0.957899
0.989569
1.00703
1.00927
1.01244
1.01884
1.02596
1.0282
1.02789
1.02875
1.02617
1.01366
0.993836
0.97875
0.969706
0.961629
0.952553
0.944547
0.936335
0.927983
0.920216
0.913615
0.907221
0.899665
0.892541
0.884059
0.87179
0.856094
0.842379
0.836286
0.833575
0.832076
0.832573
0.830652
0.827035
0.823501
0.817765
0.80579
0.788681
0.777721
0.772988
0.769462
0.766871
0.765107
0.76252
0.756813
0.74635
0.736569
0.734421
0.735821
0.74111
0.752066
0.761451
0.765405
0.767329
0.767112
0.759176
0.751372
0.75027
0.750529
0.754831
0.764587
0.772739
0.776737
0.779627
0.782658
0.784439
0.784278
0.783538
0.783653
0.797089
3.27252
2.91096
2.60708
2.31896
2.07082
1.87628
1.69141
1.50968
1.39975
1.30934
1.21927
1.11154
1.05121
1.0047
0.950763
0.882256
0.852026
0.837991
0.811273
0.788863
0.791364
0.803668
0.813335
0.822771
0.838168
0.861733
0.893563
0.929913
0.958017
0.972656
0.988462
1.01311
1.01899
1.02482
1.03143
1.03138
1.02403
1.00977
1.00077
0.994657
0.987401
0.976883
0.965891
0.955645
0.94564
0.935614
0.924912
0.915815
0.909305
0.903844
0.899043
0.894286
0.889216
0.881296
0.869643
0.863165
0.860512
0.858599
0.854979
0.849811
0.844038
0.836347
0.824111
0.809189
0.801425
0.798423
0.796725
0.793999
0.788752
0.781117
0.76969
0.759516
0.757568
0.758884
0.764247
0.777102
0.793916
0.80357
0.807953
0.810942
0.810508
0.80374
0.803578
0.805124
0.806318
0.811422
0.81812
0.818918
0.819625
0.820707
0.820993
0.821438
0.821454
0.820498
0.819824
0.830078
3.36829
3.04992
2.76694
2.49394
2.25777
2.06606
1.87866
1.69501
1.56435
1.45771
1.35914
1.25684
1.18962
1.13847
1.0833
1.00564
0.955166
0.934808
0.907042
0.862057
0.843902
0.845615
0.836507
0.820517
0.811742
0.811454
0.818392
0.832761
0.854506
0.887531
0.923044
0.958197
0.982891
0.996591
1.01161
1.02466
1.02442
1.01493
1.0023
1.00072
0.999189
0.993917
0.984549
0.975207
0.965014
0.952633
0.934351
0.914693
0.909755
0.908472
0.907508
0.908998
0.910032
0.908287
0.900979
0.888892
0.881273
0.876049
0.869592
0.861492
0.853067
0.84432
0.834336
0.825455
0.821659
0.818908
0.816254
0.813049
0.806035
0.794603
0.793723
0.797778
0.807927
0.825075
0.84861
0.876971
0.900553
0.914302
0.925857
0.936093
0.944068
0.953643
0.965015
0.978535
0.99063
0.992493
0.987791
0.977665
0.965995
0.95544
0.945183
0.934566
0.926773
0.919909
0.911604
0.903102
3.44529
3.16477
2.90277
2.63833
2.41257
2.22865
2.03481
1.84821
1.72065
1.61037
1.50123
1.39395
1.31208
1.24951
1.19781
1.12888
1.06895
1.03656
1.00019
0.94725
0.905344
0.894383
0.874681
0.844448
0.821419
0.817644
0.820363
0.821434
0.819838
0.825353
0.846588
0.871317
0.895374
0.917704
0.941675
0.971563
1.00499
1.01206
1.00379
1.00365
1.00327
1.00013
0.99118
0.98439
0.978347
0.9687
0.95098
0.92769
0.91729
0.915467
0.91529
0.918438
0.922826
0.922869
0.919591
0.908939
0.89511
0.887032
0.880429
0.872211
0.862312
0.852939
0.848272
0.846206
0.846142
0.846099
0.84323
0.845405
0.856376
0.88004
0.914669
0.956815
1.00453
1.05854
1.10859
1.1459
1.1675
1.17659
1.18037
1.1838
1.18903
1.19404
1.20098
1.21726
1.24343
1.25708
1.2567
1.24921
1.23435
1.21698
1.19672
1.17469
1.16363
1.15655
1.14886
1.11582
3.51979
3.25953
3.01428
2.76882
2.54969
2.36369
2.18006
2.00713
1.86537
1.73914
1.62355
1.53467
1.44848
1.36985
1.31152
1.23762
1.16484
1.12994
1.10028
1.05252
0.998213
0.978925
0.957887
0.922654
0.87256
0.851889
0.852992
0.845032
0.826545
0.820297
0.823749
0.823063
0.82034
0.825588
0.844385
0.877797
0.922999
0.967553
0.985178
0.997454
0.999993
0.997181
0.98784
0.982862
0.979483
0.97377
0.96393
0.951369
0.939516
0.931254
0.929128
0.929249
0.929678
0.928284
0.926188
0.918971
0.904107
0.894918
0.891111
0.886341
0.881735
0.882697
0.892565
0.914685
0.943001
0.972705
1.00385
1.04041
1.08548
1.13682
1.18832
1.23559
1.27861
1.3158
1.34969
1.37674
1.3832
1.38205
1.37721
1.36179
1.34971
1.34701
1.34637
1.35254
1.36853
1.39094
1.40815
1.41128
1.40958
1.40131
1.38243
1.36696
1.36505
1.36707
1.37465
1.35936
3.58393
3.34029
3.11137
2.88016
2.67292
2.4898
2.304
2.14184
2.00615
1.87456
1.74149
1.65265
1.56734
1.47986
1.42096
1.36108
1.27822
1.22017
1.18557
1.13745
1.07488
1.04921
1.03311
1.00223
0.945921
0.903892
0.894811
0.878041
0.849272
0.828826
0.829623
0.831026
0.81988
0.806778
0.806848
0.81414
0.833531
0.868626
0.912288
0.940993
0.963033
0.970338
0.965418
0.964788
0.966492
0.968055
0.969181
0.966654
0.960073
0.954471
0.948724
0.944029
0.93908
0.933721
0.931295
0.925796
0.913646
0.91062
0.915524
0.931748
0.964355
1.0183
1.0892
1.16359
1.22692
1.28012
1.32382
1.35751
1.38237
1.39661
1.404
1.41093
1.41713
1.42174
1.43058
1.44544
1.44795
1.44607
1.44277
1.42792
1.41135
1.40909
1.40979
1.41114
1.41495
1.42819
1.44807
1.46626
1.47284
1.47075
1.46132
1.45541
1.45525
1.45894
1.47251
1.48065
3.66979
3.43077
3.20586
2.99114
2.79238
2.60638
2.42639
2.27048
2.13129
1.99231
1.86054
1.77485
1.69145
1.58812
1.50649
1.45153
1.37806
1.31535
1.27888
1.23615
1.16441
1.11756
1.10115
1.07394
1.02566
0.978635
0.962616
0.943875
0.911405
0.874218
0.870002
0.866434
0.848059
0.819332
0.808284
0.80827
0.808072
0.80984
0.820846
0.844609
0.874275
0.904643
0.930948
0.938545
0.944991
0.957971
0.966023
0.964184
0.960884
0.963114
0.963107
0.961425
0.957337
0.951829
0.949051
0.957916
0.982965
1.02608
1.08932
1.16957
1.2562
1.33714
1.39932
1.44386
1.47826
1.50149
1.52242
1.53123
1.52509
1.50825
1.48362
1.46433
1.45153
1.44486
1.44323
1.44968
1.46068
1.46562
1.46388
1.45193
1.43655
1.43337
1.43653
1.43722
1.43168
1.4299
1.44385
1.47975
1.49944
1.50037
1.49891
1.49727
1.49807
1.50365
1.50985
1.52754
3.74366
3.514
3.29281
3.08601
2.89731
2.71528
2.541
2.38948
2.25258
2.11351
1.98379
1.89037
1.7998
1.69163
1.61306
1.55577
1.47889
1.39357
1.35542
1.3177
1.2588
1.20464
1.17619
1.14428
1.09145
1.03415
1.01617
0.999992
0.970698
0.928731
0.916066
0.909174
0.888427
0.849004
0.819858
0.817276
0.816976
0.809639
0.808397
0.812127
0.823444
0.832187
0.843307
0.863987
0.886136
0.916368
0.944927
0.947446
0.952738
0.963778
0.973066
0.979283
0.990336
1.01862
1.08531
1.18726
1.29204
1.37987
1.45866
1.51307
1.55449
1.56521
1.56793
1.56901
1.57272
1.58204
1.58483
1.57674
1.55961
1.53398
1.49904
1.46918
1.45287
1.44051
1.43749
1.44341
1.45517
1.47437
1.47883
1.46797
1.45073
1.44218
1.44377
1.4435
1.43551
1.43258
1.44352
1.47951
1.51393
1.52166
1.52328
1.52255
1.52046
1.5232
1.52677
1.55092
3.84703
3.61848
3.40073
3.20017
3.01404
2.83453
2.66465
2.51228
2.37159
2.22486
2.10533
2.01214
1.91693
1.7983
1.70571
1.6478
1.57505
1.4947
1.44565
1.40137
1.33284
1.26542
1.24154
1.21592
1.16937
1.10823
1.08062
1.06286
1.03433
0.987355
0.969742
0.96646
0.949889
0.910464
0.87003
0.864672
0.85991
0.842684
0.820246
0.819182
0.820618
0.809575
0.797294
0.799632
0.81233
0.83941
0.876057
0.915554
0.94899
0.970514
1.00677
1.07558
1.17839
1.30382
1.44828
1.55939
1.61869
1.65142
1.67633
1.67397
1.65728
1.63086
1.61793
1.60867
1.6063
1.60853
1.59879
1.58299
1.55934
1.52466
1.48671
1.46158
1.44719
1.43612
1.43299
1.44486
1.4739
1.48091
1.47437
1.46538
1.45422
1.43918
1.43547
1.43972
1.43895
1.44007
1.45733
1.49973
1.53097
1.53674
1.53768
1.53369
1.52685
1.52769
1.53449
1.57356
3.92682
3.70951
3.50345
3.30693
3.11595
2.93977
2.78443
2.63918
2.50091
2.34934
2.21629
2.11907
2.02905
1.91717
1.82693
1.75269
1.67076
1.5753
1.52517
1.4898
1.42844
1.34476
1.30196
1.27205
1.23032
1.17811
1.1524
1.13452
1.10539
1.05348
1.02015
1.01324
0.997276
0.961499
0.919533
0.911862
0.90563
0.887833
0.857807
0.839873
0.832048
0.814774
0.79696
0.795409
0.797429
0.804394
0.819966
0.853376
0.912716
1.02466
1.18684
1.37592
1.52057
1.61965
1.6831
1.70857
1.7291
1.74591
1.74255
1.72302
1.68123
1.64602
1.62949
1.61781
1.6038
1.58295
1.56729
1.5514
1.52328
1.49358
1.46956
1.46016
1.45661
1.44851
1.4469
1.45237
1.46017
1.46338
1.45784
1.45305
1.44784
1.43619
1.43339
1.44141
1.45221
1.46093
1.47539
1.49299
1.51737
1.52863
1.52818
1.52699
1.52813
1.53333
1.55091
1.60738
4.01017
3.80006
3.60493
3.41254
3.22994
3.06143
2.89027
2.73066
2.60253
2.47579
2.33803
2.21933
2.12298
2.01929
1.92619
1.85188
1.77631
1.67843
1.60592
1.56205
1.50449
1.4288
1.38031
1.34623
1.30195
1.23952
1.21243
1.19927
1.17323
1.12597
1.08404
1.07135
1.05515
1.02124
0.974551
0.964164
0.9597
0.943916
0.913249
0.887568
0.873028
0.854053
0.825793
0.816058
0.819993
0.837886
0.893323
1.01517
1.17384
1.33037
1.48385
1.57592
1.63058
1.66392
1.67762
1.68676
1.70725
1.72855
1.72919
1.70743
1.68015
1.65206
1.63769
1.62522
1.60368
1.57726
1.55902
1.53907
1.50572
1.47866
1.4744
1.4734
1.4687
1.45458
1.44585
1.44596
1.44637
1.44832
1.44884
1.44608
1.44528
1.43992
1.43618
1.44653
1.46876
1.47966
1.48357
1.48762
1.49753
1.519
1.52762
1.52653
1.53167
1.5543
1.59348
1.60696
4.14125
3.92142
3.71192
3.5197
3.33417
3.16781
3.00972
2.85112
2.70896
2.58764
2.45425
2.32213
2.21885
2.12662
2.02412
1.9374
1.86962
1.78367
1.70471
1.64741
1.58454
1.49877
1.44459
1.41805
1.38084
1.32121
1.28341
1.26307
1.23167
1.1834
1.13847
1.12774
1.11545
1.08529
1.03716
1.01929
1.01057
0.991931
0.955549
0.924721
0.910563
0.89571
0.873324
0.884361
0.936655
1.05605
1.22456
1.39251
1.48924
1.55601
1.59144
1.60301
1.59969
1.59381
1.59381
1.59076
1.58314
1.59406
1.61715
1.61714
1.61249
1.6315
1.64514
1.63205
1.59994
1.57808
1.56146
1.53939
1.50527
1.49234
1.49168
1.49258
1.48918
1.47393
1.44914
1.4418
1.43983
1.43903
1.44018
1.45103
1.45656
1.45341
1.44733
1.45031
1.47527
1.48836
1.48311
1.48281
1.49113
1.50773
1.52561
1.54285
1.56493
1.58461
1.58641
1.58827
4.17472
4.06175
3.84467
3.6383
3.45857
3.29075
3.11905
2.94467
2.81063
2.70364
2.58248
2.43511
2.31111
2.22596
2.12972
2.03168
1.9567
1.87827
1.7924
1.73025
1.67419
1.59821
1.52692
1.49157
1.45286
1.39137
1.35261
1.33195
1.30282
1.25214
1.19456
1.1809
1.16996
1.1431
1.09988
1.0794
1.06776
1.04685
1.00763
0.974229
0.967831
0.992563
1.06134
1.19366
1.37123
1.53341
1.66182
1.69511
1.67227
1.65794
1.64233
1.62078
1.59453
1.56449
1.54008
1.5066
1.47174
1.46597
1.47398
1.50071
1.51463
1.54176
1.58099
1.57888
1.5662
1.56346
1.56298
1.55047
1.53786
1.53182
1.52491
1.51839
1.51153
1.49014
1.45605
1.44199
1.43624
1.43388
1.43832
1.45797
1.46487
1.4621
1.45637
1.45331
1.45668
1.4696
1.47973
1.48228
1.49074
1.5076
1.53955
1.56069
1.55968
1.56202
1.56432
1.56841
3.92331
4.09969
3.98583
3.77186
3.57688
3.41075
3.24962
3.08499
2.92387
2.78513
2.67432
2.55332
2.43452
2.33493
2.23335
2.12332
2.04191
1.97592
1.8896
1.81018
1.75362
1.68641
1.61526
1.57694
1.53989
1.47841
1.41837
1.39404
1.36542
1.31859
1.2618
1.24412
1.23009
1.2021
1.15586
1.13187
1.11857
1.10366
1.07879
1.09367
1.1648
1.32795
1.52813
1.68139
1.80113
1.8784
1.87178
1.82506
1.75953
1.71241
1.66798
1.61912
1.5755
1.54392
1.51875
1.48692
1.45405
1.43899
1.43262
1.43451
1.4383
1.44069
1.45843
1.47711
1.48362
1.4945
1.51606
1.53969
1.55708
1.55612
1.54756
1.53749
1.51403
1.47792
1.45451
1.44463
1.43881
1.43663
1.4448
1.46142
1.46253
1.46044
1.4533
1.44186
1.43823
1.44208
1.45595
1.47599
1.50026
1.53236
1.54302
1.54234
1.539
1.53758
1.53938
1.54919
2.74579
3.93726
4.03718
3.92399
3.72252
3.53464
3.36412
3.20803
3.05616
2.91178
2.77939
2.64573
2.53561
2.44427
2.35149
2.24006
2.13271
2.06249
1.98243
1.90271
1.85063
1.7912
1.69956
1.6441
1.6142
1.5638
1.50517
1.47152
1.43862
1.38621
1.32083
1.30388
1.28822
1.26092
1.21883
1.19463
1.18701
1.21398
1.31048
1.47753
1.69731
1.88785
1.96457
2.01686
2.02993
2.00782
1.95252
1.87782
1.80985
1.75027
1.69676
1.64685
1.60625
1.57344
1.53855
1.5016
1.47069
1.44833
1.43294
1.42626
1.42386
1.41786
1.40713
1.40529
1.40424
1.40778
1.42901
1.47539
1.51948
1.5294
1.52602
1.50803
1.47085
1.45197
1.44926
1.44572
1.44204
1.44224
1.4594
1.47154
1.46939
1.45908
1.44156
1.42725
1.41993
1.41819
1.4223
1.43775
1.46698
1.50436
1.51869
1.51801
1.51421
1.51322
1.51506
1.52744
1.64414
2.89274
3.91506
3.98179
3.88059
3.68223
3.49067
3.33907
3.18428
3.02376
2.88577
2.77335
2.66248
2.54766
2.44029
2.33584
2.25065
2.17608
2.08681
1.98185
1.92737
1.88738
1.81613
1.73903
1.69229
1.63576
1.56895
1.5386
1.51335
1.46711
1.4005
1.37012
1.34769
1.32043
1.30442
1.33641
1.45641
1.65726
1.89422
2.0774
2.20037
2.18856
2.16849
2.15154
2.10914
2.04765
1.97412
1.90583
1.85012
1.79765
1.74595
1.6985
1.65791
1.62085
1.59404
1.5778
1.55642
1.52416
1.48711
1.4587
1.44009
1.42006
1.39842
1.39062
1.38788
1.38969
1.39247
1.40155
1.42245
1.44078
1.4423
1.43201
1.41043
1.39962
1.39899
1.4016
1.40699
1.4214
1.43924
1.43971
1.43279
1.42223
1.41502
1.40946
1.40227
1.39601
1.39506
1.40091
1.42731
1.47495
1.48985
1.49086
1.49051
1.48803
1.48687
1.4993
1.40868
1.71622
2.95684
3.88441
3.92209
3.83605
3.64242
3.46101
3.31296
3.16837
3.01219
2.87365
2.77433
2.67397
2.56315
2.43553
2.34515
2.27619
2.19321
2.10036
2.02041
1.96895
1.89881
1.82354
1.77881
1.73003
1.6553
1.61043
1.57703
1.52907
1.46893
1.44583
1.43958
1.48168
1.62204
1.86766
2.11988
2.32249
2.44666
2.43127
2.36794
2.31043
2.26014
2.20559
2.1425
2.06869
2.00065
1.95234
1.9113
1.86611
1.81593
1.76531
1.71996
1.67992
1.65767
1.64382
1.6258
1.5967
1.55587
1.50853
1.4654
1.43904
1.42008
1.40529
1.39727
1.3891
1.38488
1.38603
1.38234
1.37913
1.37619
1.36446
1.34694
1.33875
1.33793
1.34276
1.35994
1.38869
1.40787
1.40545
1.39337
1.37967
1.37629
1.37667
1.37487
1.37007
1.36983
1.37537
1.39488
1.43033
1.4448
1.44921
1.45452
1.45516
1.45676
1.47761
1.40006
1.41376
1.75797
2.97439
3.83153
3.86435
3.79729
3.62965
3.44495
3.28691
3.14434
3.01165
2.89018
2.77976
2.66729
2.55236
2.46919
2.38367
2.29084
2.18397
2.11282
2.06642
1.99951
1.90443
1.84989
1.80885
1.74469
1.69755
1.66134
1.61401
1.56879
1.59708
1.75209
2.05685
2.36717
2.59366
2.71217
2.69502
2.62442
2.52392
2.44213
2.37714
2.30868
2.23608
2.15739
2.08033
2.04399
2.02202
1.99661
1.95781
1.8966
1.83036
1.78493
1.752
1.72584
1.70315
1.68033
1.65474
1.62329
1.58329
1.53561
1.48164
1.44233
1.42887
1.41893
1.40536
1.39131
1.38086
1.37163
1.36292
1.35121
1.32886
1.31043
1.3057
1.30231
1.30247
1.31181
1.3335
1.34291
1.33861
1.32713
1.31944
1.31682
1.31694
1.32169
1.3294
1.3408
1.35539
1.36658
1.37697
1.38457
1.38935
1.39876
1.4109
1.41925
1.44797
1.40001
1.40012
1.4176
1.76839
2.95954
3.72279
3.82309
3.78175
3.61803
3.43601
3.27009
3.1271
3.00943
2.90055
2.77968
2.66819
2.58014
2.48937
2.40028
2.29695
2.21132
2.15678
2.08712
1.99999
1.94385
1.90039
1.82088
1.7699
1.76541
1.81381
1.97789
2.26848
2.57871
2.80818
2.96296
2.95637
2.89573
2.79441
2.69178
2.60556
2.52776
2.45038
2.3688
2.26983
2.17674
2.14052
2.11897
2.09729
2.0703
2.0288
1.96737
1.90116
1.84915
1.8076
1.77251
1.74839
1.72656
1.6989
1.66235
1.61674
1.57309
1.54167
1.51725
1.49393
1.47023
1.44724
1.42516
1.40527
1.38575
1.36712
1.34928
1.32225
1.29943
1.29426
1.29028
1.28733
1.28952
1.29428
1.29235
1.28526
1.27267
1.2651
1.26184
1.2606
1.26371
1.27773
1.3015
1.3221
1.32287
1.31593
1.31573
1.32082
1.32991
1.34873
1.36924
1.40898
1.40001
1.40001
1.40016
1.41877
1.76129
2.85414
3.6269
3.80336
3.76665
3.60887
3.42419
3.25516
3.12591
3.00846
2.88921
2.7927
2.70077
2.60369
2.50338
2.39451
2.32883
2.26376
2.18349
2.07949
2.01253
1.99412
1.95318
1.99579
2.17492
2.54886
2.94782
3.18612
3.23539
3.17699
3.1232
3.02199
2.90934
2.81336
2.732
2.66496
2.59637
2.5147
2.42009
2.32992
2.26793
2.23098
2.20053
2.1691
2.13063
2.07976
2.0248
1.9744
1.92642
1.87631
1.82356
1.78454
1.76139
1.74215
1.71534
1.66874
1.60292
1.56569
1.55326
1.54129
1.52345
1.49537
1.46088
1.43162
1.41122
1.39176
1.36627
1.33042
1.30122
1.2898
1.28704
1.28638
1.28164
1.27501
1.26812
1.26048
1.24505
1.2294
1.22618
1.22498
1.22633
1.23723
1.25299
1.25679
1.25317
1.24655
1.24118
1.24366
1.25113
1.27052
1.30001
1.34858
1.40001
1.40001
1.40001
1.40018
1.41761
1.72436
2.68314
3.5703
3.77259
3.73106
3.59032
3.3975
3.25128
3.11751
2.99986
2.91001
2.8132
2.71908
2.60821
2.50619
2.44275
2.35883
2.27521
2.19459
2.13675
2.1988
2.44698
2.89219
3.27514
3.62465
3.67057
3.58629
3.49113
3.35009
3.19506
3.06297
2.95991
2.88605
2.81407
2.73889
2.65965
2.57743
2.4992
2.43031
2.36773
2.31113
2.26739
2.22883
2.18468
2.13311
2.08341
2.03768
1.9899
1.93537
1.88234
1.8435
1.80887
1.77751
1.74831
1.71107
1.6656
1.62526
1.58727
1.5589
1.53936
1.52396
1.50618
1.47257
1.4224
1.38376
1.36459
1.35304
1.33633
1.30645
1.28488
1.28013
1.27689
1.26964
1.25984
1.24989
1.23628
1.21601
1.20887
1.20744
1.20786
1.21428
1.21605
1.21303
1.20824
1.20224
1.19386
1.19052
1.19407
1.20577
1.22827
1.26506
1.40001
1.40001
1.40001
1.40001
1.40017
1.41443
1.65905
2.52447
3.51319
3.71014
3.65816
3.54522
3.40523
3.24482
3.11266
3.02088
2.92753
2.83238
2.70813
2.62743
2.54923
2.46952
2.39699
2.45481
2.69029
3.15948
3.6924
3.90945
4.00363
3.95598
3.8211
3.6782
3.55468
3.43246
3.28967
3.13509
3.0203
2.94483
2.88638
2.82487
2.75711
2.68635
2.6055
2.52016
2.43411
2.35754
2.30914
2.27483
2.23957
2.19887
2.15134
2.09231
2.02746
1.96262
1.91151
1.8839
1.86179
1.83378
1.78825
1.72221
1.67491
1.65106
1.63111
1.60913
1.58352
1.55464
1.528
1.49697
1.45652
1.41721
1.38739
1.36269
1.33868
1.31592
1.30076
1.29338
1.28716
1.27865
1.26859
1.25677
1.23943
1.21554
1.20472
1.20249
1.202
1.20538
1.20622
1.20242
1.1971
1.1917
1.18507
1.17665
1.17485
1.17492
1.18054
1.19755
1.40001
1.40001
1.40001
1.40001
1.40001
1.40012
1.41037
1.59626
2.41166
3.39493
3.6065
3.59657
3.5519
3.41274
3.2464
3.13202
3.03492
2.93538
2.80059
2.74819
2.6775
2.73908
3.03863
3.5591
4.08408
4.36699
4.49116
4.41997
4.28856
4.10858
3.92113
3.74776
3.60771
3.4935
3.36098
3.194
3.10215