/*--------------------------------*- C++ -*----------------------------------*\
  =========                 |
  \\      /  F ield         | OpenFOAM: The Open Source CFD Toolbox
   \\    /   O peration     | Website:  https://openfoam.org
    \\  /    A nd           | Version:  7
     \\/     M anipulation  |
\*---------------------------------------------------------------------------*/
FoamFile
{
    version     2.0;
    format      ascii;
    class       volScalarField;
    location    "1";
    object      T;
}
// * * * * * * * * * * * * * * * * * * * * * * * * * * * * * * * * * * * * * //

dimensions      [0 0 0 1 0 0 0];

internalField   nonuniform List<scalar> 
4032
(
1
1
1
1
1
1
1
1
1
1
1
1
1
2.09965
2.79803
2.80175
2.80666
2.82001
2.84022
2.86486
2.89621
2.93992
2.9925
3.02275
1
1
1
1
1
1
1
1
1
1
1
1
1
2.07617
2.78943
2.79984
2.80515
2.81823
2.8379
2.86221
2.89321
2.93653
2.98864
3.01857
1
1
1
1
1
1
1
1
1
1
1
1
1
2.01806
2.77488
2.79533
2.80126
2.81429
2.83343
2.85758
2.88845
2.93183
2.98368
3.0136
1
1
1
1
1
1
1
1
1
1
1
1
1
1.92185
2.74756
2.7858
2.7929
2.80637
2.8252
2.84991
2.88113
2.92451
2.9757
3.00473
1
1
1
1
1
1
1
1
1
1
1
1
1
1.78956
2.70217
2.76978
2.7807
2.79443
2.81273
2.83756
2.86778
2.90993
2.96066
2.99119
1
1
1
1
1
1
1
1
1
1
1
1
1
1.59386
2.62125
2.74443
2.76076
2.77654
2.79565
2.82106
2.85075
2.8914
2.9382
2.9593
1
1
1
1
1
1
1
1
1
1
1
1
1
1.33149
2.50467
2.71785
2.73456
2.75625
2.77867
2.80207
2.8255
2.85615
2.89467
2.91465
1
1
1
1
1
1
1
1
1
1
1
1
1
1.05402
2.36107
2.69477
2.70708
2.73054
2.75327
2.77474
2.79254
2.81743
2.8584
2.90167
1
1
1
1
1
1
1
1
1
1
1
1
1
1.00068
2.17561
2.66557
2.69684
2.71781
2.73378
2.74959
2.75843
2.76144
2.74185
2.67419
1
1
1
1
1
1
1
1
1
1
1
1
1
1
1.87718
2.60208
2.67839
2.69923
2.71067
2.71871
2.71653
2.69721
2.65679
2.51575
1
1
1
1
1
1
1
1
1
1
1
1
1
1
1.42892
2.47252
2.65151
2.66313
2.67426
2.6752
2.66801
2.63748
2.58214
2.41464
1
1
1
1
1
1
1
1
1
1
1
1
1
1
1.04213
2.29311
2.60524
2.61488
2.62566
2.62343
2.6132
2.58359
2.51321
2.36484
1
1
1
1
1
1
1
1
1
1
1
1
1
1
1.00034
1.94134
2.52213
2.59108
2.58969
2.58146
2.56476
2.53235
2.46021
2.35003
1
1
1
1
1
1
1
1
1
1
1
1
1
1
1
1.34821
2.36653
2.55952
2.55038
2.54034
2.51956
2.48329
2.41957
2.3348
1
1
1
1
1
1
1
1
1
1
1
1
1
1
1
1.02448
2.12419
2.4916
2.51045
2.50182
2.47975
2.44307
2.38823
2.32109
1
1
1
1
1
1
1
1
1
1
1
1
1
1
1
1.0001
1.55694
2.34732
2.48266
2.46447
2.44251
2.4083
2.36053
2.30506
1
1
1
1
1
1
1
1
1
1
1
1
1
1
1
1
1.06942
2.11924
2.43443
2.42001
2.40233
2.37453
2.33538
2.2896
1
1
1
1
1
1
1
1
1
1
1
1
1
1
1
1
1.00083
1.55827
2.27483
2.39673
2.3705
2.34518
2.31338
2.27583
1
1
1
1
1
1
1
1
1
1
1
1
1
1
1
1
1
1.07409
2.03659
2.35531
2.33498
2.31046
2.28402
2.25359
1
1
1
1
1
1
1
1
1
1
1
1
1
1
1
1
1
1.00099
1.43843
2.17314
2.31342
2.28383
2.25944
2.23162
1
1
1
1
1
1
1
1
1
1
1
1
1
1
1
1
1
1
1.04434
1.85105
2.25645
2.24839
2.22671
2.20411
1
1
1
1
1
1
1
1
1
1
1
1
1
1
1
1
1
1
1.00047
1.2647
2.03653
2.23013
2.19983
2.18094
1
1
1
1
1
1
1
1
1
1
1
1
1
1
1
1
1
1
1
1.0141
1.54838
2.08407
2.18358
2.1542
1
1
1
1
1
1
1
1
1
1
1
1
1
1
1
1
1
1
1
1.0001
1.08325
1.76686
2.09913
2.13521
1
1
1
1
1
1
1
1
1
1
1
1
1
1
1
1
1
1
1
1
1.00164
1.23257
1.8582
2.09803
1
1
1
1
1
1
1
1
1
1
1
1
1
1
1
1
1
1
1
1
1.00001
1.01151
1.37253
1.90993
1
1
1
1
1
1
1
1
1
1
1
1
1
1
1
1
1
1
1
1
1
1.00009
1.03552
1.48353
1
1
1
1
1
1
1
1
1
1
1
1
1
1
1
1
1
1
1
1
1
1
1.00048
1.07254
1
1
1
1
1
1
1
1
1
1
1
1
1
1
1
1
1
1
1
1
1
1
1
1.00152
1
1
1
1
1
1
1
1
1
1
1
1
1
1
1
1
1
1
1
1
1
1
1
1.00001
1
1
1
1
1
1
1
1
1
1
1
1
1
1
1
1
1
1
1
1
1
1
1
1
1
1
1
1
1
1
1
1
1
1
1
1
1
1
1
1
1
1
1
1
1
1
1
1
1
1
1
1
1
1
1
1
1
1
1
1
1
1
1
1
1
1
1
1
1
1
1
1
1
1
1
1
1
1
1
1
1
1
1
1
1
1
1
1
1
1
1
1
1
1
1
1
1
1
1
1
1
1
1
1
1
1
1
1
1
1
1
1
1
1
1
1
1
1
1
1
1
1
1
1
1
1
1
1
1
1
1
1
1
1
1
1
1
1
1
1
1
1
1
1
1
1
1
1
1
1
1
1
1
1
1
1
1
1
1
1
1
1
1
1
1
1
1
1
1
1
1
1
1
1
1
1
1
1
1
1
1
1
1
1
1
1
1
1
1
1
1
1
1
1
1
1
1
1
1
1
1
1
1
1
1
1
1
1
1
1
1
1
1
1
1
1
1
1
1
1
1
1
1
1
1
1
1
1
1
1
1
1
1
1
1
1
1
1
1
1
1.82662
1.31353
1.17604
1.18518
1.2105
1.32735
1.41781
1.49905
1.64471
1.79394
1.83749
1.82168
1.81192
1.82998
1.88133
1.89961
1.89996
1.89419
1.88147
1.87527
1.8748
1.87459
1.86573
1.84459
1.82901
1.82459
1.82373
1.82305
1.81899
1.81054
1.79836
1.79199
1.78957
1.78722
1.78771
1.79052
1.79064
1.7887
1.78503
1.78441
1.78597
1.7923
1.79991
1.80034
1.80041
1.80217
1.80465
1.80931
1.81787
1.82791
1.83331
1.83426
1.83276
1.82693
1.81977
1.81328
1.80743
1.80492
1.80463
1.80425
1.80289
1.80117
1.80124
1.80082
1.79913
1.79775
1.79795
1.79989
1.80413
1.81096
1.82135
1.83559
1.84729
1.8546
1.85805
1.85808
1.85697
1.85465
1.84625
1.84355
1.85004
1.85623
1.85843
1.86121
1.86085
1.85394
1.84856
1.84075
1.83318
1.83199
1.82944
1.82179
1.80743
1.78227
1.75157
1.70817
2.0516
1.74377
1.66805
1.57169
1.42112
1.39063
1.36569
1.36775
1.39425
1.44347
1.47315
1.51201
1.55838
1.60868
1.67135
1.72653
1.75388
1.76259
1.76742
1.77166
1.77789
1.78778
1.78623
1.77596
1.77025
1.77076
1.77202
1.77115
1.76651
1.75986
1.75047
1.7477
1.74684
1.74497
1.74447
1.74595
1.74834
1.74824
1.74588
1.74451
1.7458
1.75169
1.76104
1.76725
1.77153
1.77469
1.77755
1.78222
1.78965
1.79728
1.80062
1.8007
1.79804
1.79178
1.78877
1.7866
1.78351
1.78151
1.78157
1.78268
1.7846
1.78471
1.78297
1.78212
1.78221
1.78326
1.78583
1.78979
1.79595
1.8051
1.81589
1.82672
1.83605
1.84074
1.84131
1.83969
1.83898
1.8396
1.8396
1.84052
1.84601
1.85103
1.8511
1.85113
1.84901
1.84388
1.84049
1.83746
1.8325
1.8297
1.82643
1.81865
1.8051
1.78138
1.74829
1.70105
2.14212
1.92743
1.79294
1.67572
1.55993
1.48553
1.43527
1.37595
1.33119
1.33046
1.33001
1.34733
1.3839
1.42058
1.46234
1.51247
1.55178
1.57908
1.60469
1.62696
1.64447
1.66136
1.67345
1.67263
1.67256
1.67662
1.67591
1.66958
1.65778
1.65094
1.64901
1.6473
1.64544
1.64229
1.64164
1.64448
1.65021
1.65733
1.66164
1.66327
1.66511
1.66841
1.67184
1.67509
1.68285
1.68983
1.69546
1.70303
1.7139
1.72455
1.72878
1.72818
1.72274
1.71625
1.71492
1.71423
1.71273
1.71189
1.71238
1.71474
1.71928
1.72168
1.72051
1.71869
1.72003
1.72455
1.73161
1.74004
1.75004
1.76324
1.77998
1.79623
1.80424
1.80505
1.802
1.7961
1.79282
1.79278
1.7975
1.80755
1.82034
1.82893
1.82952
1.82708
1.82068
1.81268
1.80725
1.80596
1.80582
1.80574
1.80523
1.80197
1.7931
1.77345
1.7421
1.68916
2.17198
2.01904
1.89588
1.77493
1.66616
1.6053
1.54371
1.47278
1.42055
1.40193
1.37372
1.33507
1.3338
1.34162
1.35621
1.37538
1.40671
1.43893
1.46738
1.49072
1.50848
1.52308
1.54258
1.55406
1.56467
1.57869
1.57958
1.57605
1.56816
1.56207
1.5587
1.55382
1.54822
1.54203
1.53935
1.54099
1.544
1.5498
1.5563
1.56005
1.56287
1.56605
1.56926
1.57134
1.57517
1.58097
1.58778
1.59743
1.61017
1.62286
1.62964
1.62956
1.62318
1.62071
1.62166
1.62172
1.62107
1.62058
1.62086
1.62256
1.62688
1.63251
1.6346
1.63442
1.63645
1.64379
1.65348
1.66373
1.67561
1.69053
1.70829
1.7247
1.73436
1.73591
1.73515
1.73493
1.73504
1.73523
1.73756
1.74706
1.76138
1.77381
1.77864
1.77855
1.77653
1.7701
1.76187
1.7562
1.75244
1.7502
1.75003
1.74988
1.74747
1.73876
1.71979
1.67459
2.20529
2.07249
1.96478
1.8578
1.75842
1.6962
1.63101
1.5504
1.4974
1.46759
1.43275
1.38626
1.36444
1.35873
1.34362
1.34386
1.35104
1.36132
1.37323
1.38907
1.41085
1.4291
1.45165
1.46691
1.4784
1.48925
1.49486
1.49341
1.49041
1.49043
1.49483
1.49948
1.49854
1.49477
1.48953
1.48503
1.48005
1.47821
1.47935
1.47997
1.48025
1.48191
1.48567
1.49132
1.4965
1.50199
1.50965
1.5189
1.52858
1.53692
1.54029
1.53931
1.53235
1.52967
1.53078
1.5314
1.53158
1.53241
1.53229
1.53343
1.53789
1.545
1.54907
1.54978
1.5522
1.56118
1.57359
1.58616
1.59997
1.61537
1.62953
1.63833
1.64047
1.64074
1.64387
1.64944
1.65567
1.66273
1.67033
1.67967
1.68895
1.69461
1.69761
1.69894
1.69868
1.69703
1.6955
1.69375
1.68878
1.68196
1.67754
1.67589
1.67441
1.67185
1.66496
1.64209
2.22433
2.11649
2.02122
1.92099
1.83148
1.76427
1.70281
1.63415
1.58361
1.54435
1.50192
1.45489
1.43139
1.4166
1.39027
1.36075
1.35619
1.35217
1.33913
1.33163
1.33601
1.34703
1.36526
1.38965
1.408
1.42155
1.43573
1.44125
1.4408
1.44228
1.44769
1.45479
1.45624
1.45573
1.45611
1.45533
1.45172
1.4464
1.44224
1.43959
1.43587
1.43404
1.43572
1.43987
1.44528
1.45091
1.4573
1.46412
1.47068
1.47674
1.47861
1.47787
1.47416
1.46937
1.46759
1.46683
1.46586
1.46613
1.46582
1.46682
1.47156
1.47914
1.48276
1.48276
1.48495
1.49427
1.50625
1.51831
1.53145
1.54369
1.55082
1.55203
1.552
1.55481
1.56199
1.57068
1.5822
1.59362
1.60215
1.60964
1.61428
1.61418
1.61377
1.61535
1.61696
1.61862
1.62075
1.62061
1.61653
1.60815
1.60102
1.59735
1.59522
1.59367
1.59199
1.58602
2.23647
2.14655
2.06296
1.97516
1.89549
1.83113
1.76409
1.69018
1.64706
1.61072
1.57229
1.52027
1.49071
1.46607
1.43469
1.393
1.37164
1.35921
1.34055
1.32193
1.32128
1.32559
1.32762
1.32907
1.33493
1.34652
1.36336
1.38238
1.39603
1.40152
1.40823
1.42135
1.42455
1.42723
1.43117
1.43212
1.42992
1.42586
1.42485
1.42387
1.42146
1.41601
1.41362
1.41479
1.41769
1.42117
1.42346
1.42578
1.42907
1.43305
1.43756
1.43958
1.43947
1.43764
1.43162
1.42689
1.42406
1.42118
1.41998
1.42063
1.42355
1.42894
1.4337
1.43681
1.44291
1.45256
1.46203
1.47013
1.47679
1.48085
1.48232
1.48321
1.48779
1.4972
1.50811
1.52126
1.537
1.54896
1.55721
1.56497
1.5695
1.56992
1.57229
1.57625
1.57769
1.57935
1.57906
1.57529
1.5679
1.55796
1.54725
1.53946
1.53457
1.53122
1.52948
1.52733
2.23671
2.16531
2.09416
2.01732
1.94661
1.8864
1.82202
1.75389
1.70588
1.66468
1.62348
1.57727
1.54681
1.52197
1.49266
1.44871
1.417
1.40143
1.38101
1.3518
1.33748
1.33593
1.32664
1.31458
1.30504
1.30248
1.30565
1.31316
1.32534
1.34394
1.36227
1.37947
1.39238
1.39894
1.4057
1.41225
1.41268
1.40939
1.40558
1.40642
1.40755
1.40607
1.4039
1.40404
1.40482
1.40548
1.40358
1.39873
1.39926
1.40211
1.40631
1.41225
1.41458
1.41404
1.41024
1.40232
1.39618
1.39158
1.38886
1.38866
1.38977
1.39364
1.3998
1.40748
1.41727
1.42472
1.42938
1.43368
1.43776
1.4409
1.44684
1.4582
1.47504
1.49603
1.51817
1.54094
1.56087
1.57494
1.58841
1.602
1.61322
1.62234
1.62865
1.63424
1.63878
1.63908
1.6332
1.62093
1.60502
1.58827
1.57109
1.55355
1.53966
1.52865
1.51916
1.5068
2.23407
2.17682
2.11713
2.04886
1.98612
1.93177
1.86861
1.80284
1.75791
1.7169
1.67359
1.62771
1.59118
1.56116
1.53498
1.49912
1.4658
1.44558
1.42208
1.38945
1.36218
1.35298
1.33797
1.31761
1.30112
1.29609
1.29696
1.29694
1.29471
1.29692
1.30834
1.32155
1.33457
1.34656
1.35829
1.37251
1.38912
1.39402
1.39044
1.39066
1.3935
1.39449
1.39348
1.39463
1.3961
1.39568
1.39256
1.38501
1.38173
1.38182
1.38311
1.38767
1.3917
1.39189
1.39013
1.38353
1.37465
1.37006
1.36783
1.36704
1.36782
1.37158
1.38073
1.39227
1.40342
1.41125
1.41727
1.424
1.43837
1.46333
1.49536
1.53198
1.57124
1.61042
1.64213
1.66521
1.67845
1.68464
1.68858
1.69219
1.69287
1.68888
1.68397
1.68437
1.69185
1.69582
1.69293
1.68319
1.66828
1.65257
1.63539
1.61625
1.6018
1.59049
1.57982
1.56475
2.22895
2.17938
2.12809
2.07069
2.01461
1.963
1.90698
1.85051
1.80221
1.75591
1.71074
1.67528
1.63922
1.60391
1.57574
1.53844
1.5
1.48005
1.46253
1.43509
1.40339
1.391
1.37697
1.35424
1.32345
1.30921
1.30935
1.30373
1.2927
1.28761
1.28827
1.28702
1.28069
1.2819
1.29165
1.30996
1.33412
1.35769
1.36868
1.37429
1.37804
1.37891
1.37833
1.38028
1.38296
1.38316
1.3819
1.37848
1.37307
1.3682
1.36785
1.36819
1.36866
1.36805
1.36737
1.36367
1.35589
1.35314
1.35362
1.35491
1.35925
1.36842
1.38649
1.41384
1.44551
1.47597
1.50366
1.53034
1.55755
1.58557
1.61202
1.63657
1.65982
1.68131
1.7004
1.71482
1.71786
1.71718
1.71462
1.70697
1.69665
1.68538
1.67414
1.67012
1.67077
1.67376
1.67447
1.66979
1.659
1.64672
1.63209
1.6185
1.60803
1.59996
1.59213
1.57767
2.21618
2.17559
2.13138
2.08064
2.03133
1.98391
1.93046
1.8809
1.83717
1.79156
1.74205
1.7083
1.67389
1.63607
1.60917
1.58116
1.54152
1.51213
1.49319
1.46699
1.43304
1.41924
1.4102
1.39263
1.36093
1.33548
1.32918
1.31822
1.30067
1.28785
1.28575
1.28429
1.27441
1.26216
1.2589
1.26219
1.2724
1.29198
1.31742
1.33361
1.34555
1.3519
1.35305
1.35627
1.36146
1.36689
1.3697
1.36877
1.36521
1.36096
1.35659
1.35322
1.34988
1.34704
1.34757
1.34734
1.34463
1.34632
1.35263
1.36808
1.39637
1.43921
1.49095
1.54245
1.58279
1.61217
1.63206
1.6442
1.65155
1.65286
1.65394
1.65722
1.66285
1.66873
1.67547
1.67933
1.67874
1.67651
1.6738
1.66586
1.65361
1.64126
1.62878
1.6174
1.61135
1.61063
1.60911
1.60553
1.5983
1.58564
1.57271
1.56295
1.5544
1.54757
1.54153
1.52498
2.20021
2.16627
2.12814
2.08524
2.04054
1.99434
1.94592
1.9017
1.85968
1.81469
1.76912
1.73887
1.70748
1.66589
1.63054
1.60546
1.57143
1.54206
1.52469
1.50416
1.46891
1.44585
1.43787
1.42363
1.39791
1.37177
1.36212
1.35054
1.33112
1.30882
1.3026
1.29704
1.28295
1.26422
1.25377
1.25121
1.24914
1.24637
1.25184
1.26625
1.28555
1.3055
1.32347
1.33082
1.33752
1.34785
1.35104
1.34951
1.34588
1.34437
1.34233
1.34034
1.33829
1.33762
1.34056
1.35112
1.37362
1.40737
1.45186
1.50269
1.55197
1.59029
1.61467
1.62863
1.64
1.64597
1.65517
1.6572
1.65445
1.64771
1.63776
1.6291
1.62241
1.61771
1.61532
1.61636
1.61878
1.61908
1.61724
1.60931
1.59714
1.58342
1.57069
1.55583
1.54065
1.53136
1.52963
1.53014
1.52644
1.51212
1.49603
1.48554
1.47868
1.47323
1.46595
1.44638
2.178
2.14951
2.11699
2.08001
2.03994
1.99674
1.95236
1.91228
1.87448
1.83344
1.79238
1.76154
1.72929
1.68831
1.65697
1.633
1.59999
1.56224
1.54574
1.52931
1.50336
1.47999
1.46811
1.45306
1.4264
1.39576
1.38471
1.37441
1.35676
1.33198
1.32172
1.31483
1.29954
1.27487
1.25491
1.24928
1.24619
1.23761
1.23519
1.23744
1.24521
1.25327
1.26281
1.27743
1.29138
1.31055
1.32303
1.32065
1.3206
1.32183
1.32455
1.3288
1.33815
1.36054
1.40969
1.47713
1.53655
1.57949
1.61376
1.63682
1.64929
1.64411
1.6351
1.62683
1.62246
1.6248
1.62876
1.627
1.62266
1.61348
1.59724
1.58006
1.56797
1.55883
1.55482
1.55509
1.55648
1.56081
1.56013
1.55093
1.53667
1.52044
1.50796
1.49441
1.47639
1.46456
1.46087
1.46006
1.45775
1.4432
1.42357
1.41081
1.40248
1.39589
1.3879
1.37138
2.15903
2.13333
2.10401
2.07177
2.03652
1.99758
1.95752
1.91967
1.88389
1.84378
1.8101
1.78269
1.75198
1.70986
1.67453
1.65152
1.62197
1.58931
1.57078
1.55419
1.52641
1.49848
1.49007
1.47917
1.45728
1.42704
1.41094
1.3992
1.38149
1.35414
1.34149
1.33714
1.32506
1.30135
1.27674
1.26924
1.26338
1.24994
1.23411
1.2339
1.23547
1.23071
1.22386
1.22521
1.23282
1.24849
1.26751
1.28598
1.30081
1.30897
1.3284
1.37373
1.44026
1.5127
1.58502
1.63593
1.65514
1.66285
1.6646
1.66099
1.64952
1.62926
1.61217
1.59882
1.59499
1.59482
1.59016
1.58377
1.57445
1.5605
1.54337
1.52862
1.51781
1.50857
1.50299
1.5034
1.50668
1.5046
1.49444
1.48439
1.47363
1.45827
1.4457
1.43705
1.42356
1.41066
1.40628
1.40516
1.39986
1.38255
1.36207
1.34713
1.33752
1.33026
1.32426
1.313
2.1318
2.10948
2.08436
2.05583
2.02359
1.98984
1.95623
1.92417
1.89337
1.85569
1.82025
1.79403
1.76793
1.73107
1.69914
1.67193
1.64132
1.60474
1.5884
1.57782
1.55632
1.52398
1.50729
1.49448
1.47543
1.45065
1.43619
1.42457
1.40688
1.37772
1.35725
1.35118
1.34043
1.31975
1.29583
1.28806
1.28175
1.26869
1.24852
1.23704
1.23306
1.22479
1.21539
1.21364
1.21437
1.21708
1.22379
1.24095
1.27682
1.34825
1.44656
1.54276
1.59938
1.63391
1.66294
1.67441
1.67719
1.67628
1.67098
1.65524
1.62715
1.59971
1.58198
1.56921
1.55785
1.54463
1.53557
1.52785
1.51618
1.50311
1.49143
1.4834
1.47667
1.46805
1.46067
1.45565
1.4497
1.44187
1.43009
1.42157
1.41429
1.40352
1.39316
1.38744
1.37952
1.36907
1.35974
1.34898
1.33724
1.32252
1.30578
1.29363
1.28754
1.28165
1.27873
1.27359
2.11162
2.08625
2.06191
2.0358
2.0087
1.98131
1.95004
1.91784
1.89135
1.86435
1.83081
1.79908
1.77237
1.74136
1.71151
1.68684
1.66141
1.62734
1.60374
1.59104
1.57243
1.54565
1.52816
1.51472
1.49562
1.46661
1.45098
1.44166
1.42603
1.40051
1.37765
1.36949
1.35962
1.3409
1.31575
1.3068
1.30166
1.29018
1.27072
1.25544
1.24753
1.23709
1.22379
1.21532
1.21679
1.22725
1.26255
1.33735
1.42408
1.50375
1.57181
1.60176
1.61873
1.62645
1.62489
1.6228
1.62224
1.62078
1.61505
1.59672
1.57617
1.5598
1.54962
1.53809
1.51968
1.50068
1.48836
1.47793
1.46486
1.4538
1.44703
1.44043
1.43102
1.41888
1.40956
1.40286
1.39547
1.38706
1.37727
1.36778
1.36186
1.35438
1.34466
1.34088
1.33691
1.32864
1.31591
1.30023
1.28482
1.27369
1.26379
1.25414
1.2497
1.24856
1.24838
1.23515
2.09252
2.06723
2.04235
2.01824
1.99212
1.96784
1.94312
1.91528
1.88876
1.86433
1.83491
1.80259
1.7762
1.751
1.72022
1.69331
1.67335
1.64697
1.62308
1.60652
1.58674
1.55629
1.5373
1.52807
1.51319
1.48721
1.46796
1.45549
1.43763
1.41246
1.38979
1.3837
1.37673
1.36104
1.33658
1.32456
1.31727
1.30474
1.2832
1.26663
1.25938
1.25076
1.23883
1.24747
1.28493
1.36032
1.44944
1.517
1.54767
1.5658
1.57486
1.56984
1.56211
1.55189
1.54158
1.53172
1.52072
1.51662
1.51414
1.50365
1.48823
1.48928
1.4893
1.48027
1.46131
1.44799
1.43945
1.42981
1.4171
1.40887
1.40105
1.39261
1.38283
1.37167
1.35966
1.35197
1.34482
1.33585
1.32697
1.32161
1.31622
1.30915
1.3004
1.29393
1.29228
1.28708
1.27408
1.25768
1.24218
1.23129
1.22671
1.22609
1.22601
1.22277
1.21397
1.19507
2.06156
2.05106
2.02598
2.00216
1.98062
1.95858
1.93297
1.90358
1.88089
1.86201
1.83912
1.80685
1.77621
1.75419
1.72786
1.70019
1.67945
1.65784
1.63313
1.61593
1.59968
1.57517
1.55093
1.5383
1.52252
1.49633
1.4784
1.46711
1.4519
1.42763
1.4007
1.3939
1.38819
1.37477
1.35327
1.341
1.33294
1.32036
1.29917
1.28256
1.28075
1.29713
1.34236
1.41817
1.50887
1.56442
1.60452
1.59722
1.5754
1.56218
1.55214
1.54041
1.52369
1.50182
1.47985
1.45488
1.43302
1.41825
1.41454
1.41401
1.40588
1.40569
1.40962
1.40578
1.39662
1.39132
1.38915
1.38362
1.3779
1.37163
1.3606
1.34811
1.33845
1.32653
1.31339
1.30529
1.29776
1.2889
1.28284
1.2797
1.27337
1.265
1.25869
1.25116
1.24457
1.24026
1.23364
1.22182
1.20773
1.19773
1.19771
1.19852
1.19457
1.18694
1.17882
1.16393
1.91913
2.02604
2.01377
1.98652
1.96398
1.94555
1.92542
1.90136
1.87361
1.84996
1.83155
1.80802
1.78173
1.75735
1.73066
1.701
1.68101
1.66611
1.64326
1.62033
1.60413
1.58384
1.5615
1.54845
1.53408
1.50972
1.48402
1.47182
1.45812
1.43748
1.41307
1.40589
1.39978
1.38658
1.36355
1.34999
1.34217
1.33402
1.32367
1.33605
1.38684
1.48208
1.57138
1.6116
1.64749
1.64504
1.63457
1.60601
1.57018
1.54531
1.52361
1.50094
1.47843
1.45855
1.43887
1.41503
1.39165
1.37508
1.36213
1.35356
1.344
1.33198
1.33169
1.33052
1.32813
1.32954
1.33366
1.33622
1.33812
1.3351
1.32311
1.30761
1.29171
1.27797
1.27054
1.2655
1.25853
1.25035
1.24659
1.24353
1.23427
1.22412
1.21724
1.20995
1.20161
1.19581
1.1926
1.18831
1.18216
1.17733
1.17239
1.1668
1.16095
1.15397
1.14763
1.13767
1.55448
1.91042
1.99251
1.97842
1.95133
1.92907
1.91007
1.89091
1.86904
1.84666
1.82478
1.79962
1.77685
1.75576
1.73402
1.70777
1.68236
1.6666
1.64635
1.62473
1.61148
1.59545
1.56702
1.54731
1.53616
1.51763
1.49448
1.4805
1.4672
1.4459
1.41892
1.41293
1.40678
1.39482
1.37481
1.36222
1.35883
1.37514
1.43394
1.52361
1.62345
1.68892
1.68904
1.67891
1.66775
1.65069
1.62185
1.58681
1.55373
1.52244
1.49404
1.46946
1.4498
1.43329
1.41586
1.39559
1.37329
1.35224
1.33494
1.32261
1.31277
1.30078
1.28805
1.2787
1.27034
1.26926
1.27366
1.28543
1.29204
1.29117
1.283
1.2659
1.247
1.23939
1.23684
1.23275
1.22598
1.22021
1.21943
1.21665
1.2057
1.19177
1.18218
1.17541
1.16799
1.15956
1.15498
1.15293
1.15104
1.14994
1.14725
1.14173
1.13442
1.12665
1.1205
1.11419
1.1132
1.58972
1.88939
1.95949
1.94598
1.91757
1.8933
1.87769
1.85975
1.83686
1.81501
1.79574
1.7744
1.75025
1.72758
1.70539
1.68828
1.67261
1.6509
1.622
1.60838
1.59959
1.58027
1.55565
1.5391
1.5179
1.4924
1.4822
1.47373
1.45694
1.43189
1.42052
1.41144
1.39965
1.39416
1.41342
1.48082
1.57765
1.66633
1.72391
1.74245
1.72761
1.70166
1.68033
1.65317
1.6213
1.58689
1.55679
1.52994
1.5014
1.47267
1.44861
1.43059
1.41542
1.40252
1.39045
1.37307
1.34942
1.32444
1.30406
1.28974
1.27798
1.26579
1.25644
1.24754
1.23982
1.23344
1.23255
1.2348
1.23614
1.233
1.22235
1.21005
1.20211
1.19918
1.19739
1.19329
1.19156
1.19151
1.18766
1.1754
1.16224
1.15547
1.15086
1.14419
1.13504
1.12801
1.12535
1.12554
1.12865
1.12803
1.12375
1.11691
1.10793
1.09964
1.09499
1.00331
1.14562
1.59683
1.86303
1.92622
1.9137
1.88424
1.86071
1.84621
1.83028
1.80749
1.78371
1.76636
1.7482
1.72798
1.70207
1.68416
1.67047
1.65166
1.62982
1.61084
1.59842
1.57886
1.55634
1.54199
1.52518
1.49913
1.48434
1.4732
1.45747
1.43793
1.43047
1.42827
1.44958
1.52337
1.64041
1.72514
1.78336
1.78762
1.77381
1.73843
1.70868
1.68539
1.66022
1.62794
1.58988
1.55768
1.53451
1.51284
1.48758
1.46039
1.43634
1.41789
1.40274
1.39212
1.38208
1.36753
1.34628
1.32119
1.29675
1.27583
1.26061
1.24872
1.23906
1.23123
1.22172
1.21111
1.20397
1.19801
1.19484
1.19182
1.18526
1.17641
1.1682
1.16266
1.16236
1.1634
1.16551
1.16675
1.16274
1.15141
1.13882
1.1319
1.12878
1.124
1.11597
1.11015
1.10703
1.1066
1.10835
1.10788
1.10491
1.10097
1.09418
1.08727
1.08388
1.00002
1.00536
1.1632
1.58935
1.83302
1.89174
1.88146
1.85722
1.83192
1.81449
1.79768
1.7791
1.75956
1.74132
1.72148
1.69908
1.6836
1.66678
1.64818
1.62491
1.61074
1.60094
1.58333
1.55524
1.53814
1.52512
1.50465
1.49034
1.47986
1.46596
1.45582
1.47269
1.54527
1.66884
1.76471
1.8367
1.83462
1.82177
1.78666
1.74258
1.70908
1.68269
1.65546
1.62516
1.59242
1.5601
1.53819
1.52095
1.50284
1.48082
1.45323
1.4265
1.40847
1.3958
1.38486
1.37288
1.35801
1.34024
1.32067
1.29982
1.27779
1.25494
1.23726
1.22756
1.2193
1.20969
1.19842
1.18678
1.17675
1.1705
1.16553
1.15778
1.15002
1.14483
1.13906
1.13377
1.13281
1.13318
1.13206
1.12558
1.11677
1.10958
1.10333
1.10002
1.09871
1.09611
1.09381
1.09276
1.09082
1.08798
1.0857
1.08312
1.08197
1.08009
1.07587
1.07384
1
1.00003
1.00692
1.16646
1.57436
1.79181
1.85812
1.85339
1.83029
1.8051
1.78466
1.76785
1.75283
1.73664
1.71498
1.69341
1.67672
1.6594
1.64417
1.62578
1.60939
1.59845
1.58088
1.55601
1.54002
1.52821
1.50416
1.49088
1.494
1.51766
1.59513
1.70984
1.80015
1.86404
1.87516
1.86452
1.83402
1.79274
1.755
1.7227
1.69189
1.66041
1.62888
1.59535
1.56353
1.54445
1.52776
1.50972
1.49037
1.46854
1.4436
1.41942
1.4005
1.3853
1.37158
1.35945
1.34606
1.32902
1.30845
1.2859
1.26721
1.25469
1.2428
1.22957
1.21685
1.20501
1.19243
1.17912
1.16583
1.15621
1.14923
1.13938
1.13032
1.12636
1.1217
1.11541
1.1107
1.10673
1.10036
1.09351
1.08672
1.08125
1.07607
1.0713
1.07072
1.07131
1.07289
1.07483
1.07265
1.06398
1.06047
1.06003
1.05925
1.05958
1.0595
1.06059
1
1
1.00005
1.0074
1.1613
1.53363
1.75182
1.83144
1.82774
1.80516
1.77931
1.75838
1.74391
1.72794
1.70717
1.68915
1.67159
1.65409
1.63803
1.61941
1.60926
1.59647
1.5777
1.55076
1.53444
1.53183
1.52479
1.54826
1.62604
1.75934
1.86487
1.9133
1.90491
1.8846
1.86092
1.82222
1.7824
1.74722
1.7175
1.6916
1.66442
1.63483
1.60462
1.57614
1.55345
1.53567
1.51774
1.49769
1.47543
1.45183
1.43069
1.41311
1.3968
1.37949
1.36052
1.34414
1.33111
1.31848
1.3025
1.27996
1.25561
1.24155
1.23406
1.22662
1.21656
1.20249
1.18639
1.17195
1.15971
1.14895
1.13867
1.12696
1.11748
1.1115
1.10602
1.10102
1.0942
1.08665
1.08003
1.07465
1.06727
1.05904
1.05414
1.04986
1.04759
1.04795
1.04842
1.04726
1.04254
1.03627
1.02983
1.02922
1.02933
1.03076
1.03407
1.04023
1
1
1
1.00005
1.00693
1.14204
1.47461
1.72816
1.80866
1.80212
1.77973
1.7529
1.73655
1.71873
1.69956
1.68435
1.66688
1.65123
1.6322
1.61474
1.6055
1.58916
1.57199
1.55488
1.54921
1.57711
1.67248
1.80855
1.8963
1.97072
1.9662
1.93533
1.90477
1.86825
1.82868
1.78932
1.75247
1.72173
1.6928
1.66479
1.63793
1.61236
1.58874
1.56671
1.54487
1.52296
1.50257
1.48231
1.46017
1.43763
1.41924
1.40485
1.39038
1.37179
1.35138
1.33544
1.32102
1.30685
1.29242
1.27554
1.25705
1.24144
1.22708
1.21575
1.20579
1.19558
1.18483
1.16981
1.15061
1.1341
1.12484
1.12041
1.11487
1.10439
1.09403
1.08784
1.08236
1.07548
1.06866
1.06277
1.05578
1.04583
1.03975
1.03599
1.0332
1.03206
1.02952
1.02483
1.02033
1.01572
1.00925
1.00393
1.00346
1.00397
1.00654
1.01093
1
1
1
1
1.00005
1.00555
1.11092
1.42706
1.71324
1.77166
1.76512
1.75247
1.73661
1.7134
1.6932
1.6802
1.66543
1.64951
1.62571
1.6129
1.59987
1.58613
1.58116
1.60771
1.70101
1.84435
1.95893
1.98998
1.98153
1.96385
1.92959
1.89221
1.8604
1.82976
1.79501
1.75575
1.72097
1.69239
1.66735
1.64321
1.62102
1.60085
1.57877
1.55423
1.5265
1.49955
1.47934
1.46293
1.44646
1.42901
1.41186
1.39428
1.37562
1.35575
1.3366
1.324
1.31399
1.30228
1.28493
1.26251
1.24438
1.23362
1.22625
1.21838
1.20711
1.19285
1.179
1.16416
1.14797
1.13313
1.12193
1.11316
1.10416
1.09486
1.08785
1.08259
1.07718
1.07079
1.06442
1.05826
1.05052
1.04017
1.03374
1.03034
1.02719
1.0254
1.02265
1.01795
1.01326
1.00856
1.00302
0.996495
0.991379
0.987734
0.986933
0.986109
1
1
1
1
1
1.00004
1.00383
1.08348
1.39743
1.66965
1.71797
1.73886
1.73424
1.71505
1.6926
1.67756
1.66305
1.64587
1.61873
1.6136
1.608
1.6337
1.74129
1.88946
2.00875
2.04353
2.03884
2.0218
1.9907
1.94755
1.89984
1.85503
1.81891
1.79031
1.75996
1.72235
1.69562
1.67307
1.64898
1.6256
1.60583
1.58823
1.56808
1.54255
1.51117
1.48327
1.46436
1.44888
1.43484
1.42088
1.40624
1.38854
1.36602
1.34678
1.33984
1.32995
1.31547
1.29904
1.27733
1.2559
1.24404
1.23407
1.22114
1.21024
1.20541
1.1997
1.18995
1.17701
1.1611
1.14483
1.13257
1.1241
1.11715
1.11057
1.1035
1.09562
1.08752
1.07957
1.0719
1.06409
1.05513
1.04376
1.03542
1.03151
1.02819
1.02575
1.02311
1.01848
1.01366
1.00869
1.00202
0.993643
0.985586
0.980479
0.977312
0.973021
1
1
1
1
1
1
1.00002
1.00253
1.06495
1.35547
1.58746
1.67764
1.72086
1.71784
1.70019
1.68096
1.66213
1.64118
1.62863
1.65143
1.7602
1.92202
2.06026
2.09497
2.0743
2.03491
1.99863
1.96302
1.93036
1.90202
1.87066
1.83437
1.7999
1.767
1.73363
1.70103
1.67715
1.65649
1.63606
1.61759
1.59942
1.57953
1.5571
1.53216
1.50696
1.48611
1.46823
1.45028
1.43288
1.41787
1.40501
1.39067
1.37215
1.35127
1.33062
1.31282
1.29699
1.28299
1.27413
1.26803
1.25897
1.24469
1.22658
1.21196
1.20015
1.18789
1.1748
1.16019
1.14503
1.13175
1.12183
1.1142
1.10704
1.09937
1.09135
1.08369
1.07645
1.06941
1.06241
1.05486
1.0452
1.03129
1.02196
1.01857
1.01582
1.01348
1.01062
1.00611
1.00143
0.996256
0.988616
0.980196
0.975536
0.972352
0.969072
0.963467
1
1
1
1
1
1
1
1.00001
1.00167
1.04709
1.27092
1.49527
1.65185
1.70765
1.69972
1.68483
1.67853
1.69495
1.7756
1.92073
2.06078
2.15598
2.15462
2.12993
2.08875
2.02391
1.95714
1.91078
1.88179
1.85936
1.83659
1.81054
1.78273
1.75195
1.71827
1.68762
1.66288
1.64082
1.62047
1.60281
1.58641
1.56879
1.54759
1.52298
1.49816
1.47657
1.45845
1.442
1.4268
1.4134
1.40029
1.38459
1.36548
1.34443
1.32322
1.30562
1.29214
1.28258
1.27392
1.26399
1.25284
1.2386
1.22245
1.20803
1.19505
1.18243
1.16929
1.15457
1.13945
1.12708
1.1184
1.11136
1.10418
1.09594
1.08731
1.07961
1.07271
1.06605
1.05919
1.05177
1.04203
1.02716
1.01765
1.01461
1.01217
1.00995
1.00685
1.00237
0.997893
0.993013
0.985881
0.977864
0.972837
0.969083
0.965468
0.959686
1
1
1
1
1
1
1
1
1.00001
1.00087
1.02593
1.16555
1.42645
1.62656
1.6788
1.74755
1.84352
1.94558
2.03556
2.09019
2.11475
2.12132
2.10219
2.06666
2.0253
1.9907
1.95163
1.91227
1.88016
1.85268
1.82968
1.81009
1.78868
1.76224
1.73364
1.70641
1.68098
1.65674
1.6338
1.6137
1.59611
1.57817
1.557
1.5328
1.5079
1.48528
1.46606
1.4493
1.43482
1.42187
1.4085
1.39277
1.37384
1.35282
1.33324
1.31779
1.30515
1.29371
1.28246
1.27098
1.25857
1.24408
1.22834
1.21383
1.20142
1.18952
1.17654
1.16246
1.14929
1.13873
1.13025
1.12234
1.11365
1.10338
1.09402
1.08779
1.08253
1.07686
1.07059
1.06332
1.05198
1.0345
1.02489
1.02203
1.01956
1.01699
1.01325
1.00867
1.00389
0.998464
0.990498
0.981206
0.97554
0.971507
0.967785
0.961905
1
1
1
1
1
1
1
1
1
1
1.00036
1.00926
1.12056
1.42407
1.73865
1.9624
2.15647
2.26696
2.33169
2.29653
2.22912
2.14267
2.06459
2.01163
1.97974
1.95282
1.92179
1.88855
1.85658
1.82625
1.80128
1.78427
1.7676
1.74488
1.71741
1.68982
1.66493
1.64197
1.61953
1.59874
1.58063
1.56279
1.54146
1.51628
1.49052
1.46815
1.44956
1.433
1.41843
1.40563
1.39264
1.37705
1.35817
1.33792
1.31974
1.30515
1.29203
1.27904
1.26654
1.25521
1.24378
1.23003
1.21421
1.19927
1.1863
1.17399
1.16132
1.14855
1.13649
1.12622
1.11763
1.10948
1.10037
1.0895
1.08081
1.07578
1.07106
1.06551
1.05939
1.05229
1.04057
1.02248
1.01305
1.01033
1.00796
1.00553
1.00175
0.997106
0.992324
0.986905
0.978756
0.969213
0.963634
0.959743
0.956163
0.950486
)
;

boundaryField
{
    inlet
    {
        type            fixedValue;
        value           uniform 1;
    }
    outlet
    {
        type            inletOutlet;
        inletValue      uniform 1;
        value           nonuniform List<scalar> 
32
(
1.70442
1.69719
1.6845
1.66987
1.63957
1.58566
1.52654
1.50027
1.55463
1.57355
1.52485
1.44696
1.37258
1.31462
1.27525
1.23393
1.19368
1.16304
1.13748
1.11476
1.09585
1.08458
1.07457
1.06139
1.041
1.01111
0.986143
0.973079
0.963559
0.959839
0.962144
0.95073
)
;
    }
    bottom
    {
        type            symmetryPlane;
    }
    top
    {
        type            symmetryPlane;
    }
    obstacle
    {
        type            zeroGradient;
    }
    defaultFaces
    {
        type            empty;
    }
}


// ************************************************************************* //
