/*--------------------------------*- C++ -*----------------------------------*\
  =========                 |
  \\      /  F ield         | OpenFOAM: The Open Source CFD Toolbox
   \\    /   O peration     | Website:  https://openfoam.org
    \\  /    A nd           | Version:  7
     \\/     M anipulation  |
\*---------------------------------------------------------------------------*/
FoamFile
{
    version     2.0;
    format      ascii;
    class       volVectorField;
    location    "1";
    object      U;
}
// * * * * * * * * * * * * * * * * * * * * * * * * * * * * * * * * * * * * * //

dimensions      [0 1 -1 0 0 0 0];

internalField   nonuniform List<vector> 
4032
(
(3 -2.20635e-18 0)
(3 1.01686e-17 0)
(3 1.55024e-16 0)
(3 2.11218e-16 0)
(3 -6.62722e-17 0)
(3 -5.59101e-16 0)
(3 -4.83996e-16 0)
(3 -1.25101e-16 0)
(3 5.20369e-17 0)
(3 6.90101e-17 0)
(3 7.81726e-17 0)
(3 6.39825e-17 0)
(3 -3.94887e-16 0)
(1.44346 0.014461 0)
(0.714979 0.0129193 0)
(0.638422 0.0279302 0)
(0.575516 0.0326144 0)
(0.504952 0.0337614 0)
(0.433774 0.0325344 0)
(0.362804 0.0325088 0)
(0.289479 0.0337089 0)
(0.215801 0.0371088 0)
(0.135654 0.040233 0)
(0.0504204 0.0456614 0)
(3 2.97189e-17 0)
(3 2.46215e-16 0)
(3 4.88086e-16 0)
(3 7.20217e-16 0)
(3 4.84865e-16 0)
(3 -4.55634e-16 0)
(3 -8.93505e-16 0)
(3 -6.09862e-16 0)
(3 -4.27744e-16 0)
(3 -7.14385e-18 0)
(3 3.00215e-17 0)
(3 4.8198e-17 0)
(3 1.22173e-16 0)
(1.47773 0.0725399 0)
(0.704331 0.0605009 0)
(0.619079 0.0855142 0)
(0.553481 0.0963027 0)
(0.48242 0.0976097 0)
(0.413147 0.0939552 0)
(0.345246 0.095693 0)
(0.274854 0.100967 0)
(0.205143 0.112617 0)
(0.128317 0.123014 0)
(0.0480387 0.138876 0)
(3 -7.96786e-17 0)
(3 -1.82973e-16 0)
(3 1.68044e-16 0)
(3 6.69645e-16 0)
(3 4.59214e-16 0)
(3 4.14116e-16 0)
(3 2.07035e-16 0)
(3 -4.43221e-16 0)
(3 -4.53236e-16 0)
(3 5.40315e-17 0)
(3 7.60723e-17 0)
(3 4.76658e-16 0)
(3 2.14693e-16 0)
(1.5861 0.131874 0)
(0.714565 0.113332 0)
(0.619905 0.148545 0)
(0.550219 0.16545 0)
(0.476336 0.165163 0)
(0.40663 0.157194 0)
(0.339513 0.159189 0)
(0.269834 0.167031 0)
(0.201295 0.184974 0)
(0.124495 0.201148 0)
(0.0472118 0.225717 0)
(3 -4.21812e-17 0)
(3 -1.92178e-16 0)
(3 -4.83633e-17 0)
(3 -6.53991e-17 0)
(3 6.54274e-17 0)
(3 6.06626e-16 0)
(3 6.49073e-16 0)
(3 5.51489e-16 0)
(3 1.56023e-16 0)
(3 5.01203e-17 0)
(3 2.12184e-16 0)
(3 6.80641e-16 0)
(3 3.34467e-16 0)
(1.76591 0.183288 0)
(0.735674 0.171836 0)
(0.625479 0.213346 0)
(0.554104 0.234618 0)
(0.483057 0.232541 0)
(0.418406 0.220884 0)
(0.353853 0.224725 0)
(0.283473 0.236863 0)
(0.212145 0.261482 0)
(0.130953 0.283821 0)
(0.0481816 0.314157 0)
(3 2.46129e-16 0)
(3 2.30387e-16 0)
(3 -1.02936e-16 0)
(3 -5.25027e-16 0)
(3 -5.54651e-17 0)
(3 -1.31063e-16 0)
(3 -3.00314e-16 0)
(3 -5.8194e-17 0)
(3 5.81395e-17 0)
(3 6.19594e-16 0)
(3 1.29688e-15 0)
(3 3.54644e-16 0)
(3 -7.60571e-16 0)
(2.00977 0.22813 0)
(0.764945 0.242211 0)
(0.629954 0.282798 0)
(0.568088 0.303521 0)
(0.51378 0.295765 0)
(0.458233 0.280643 0)
(0.397281 0.287829 0)
(0.325809 0.30745 0)
(0.250181 0.340905 0)
(0.15795 0.375384 0)
(0.0605845 0.415811 0)
(3 6.62033e-17 0)
(3 -7.29728e-17 0)
(3 -5.85746e-16 0)
(3 -8.27418e-16 0)
(3 -1.02263e-15 0)
(3 -1.56682e-15 0)
(3 -1.26639e-15 0)
(3 -1.31842e-15 0)
(3 -7.36199e-16 0)
(3 2.53978e-16 0)
(3 7.1975e-16 0)
(3 1.99623e-15 0)
(3 9.94482e-16 0)
(2.34883 0.255899 0)
(0.833847 0.320771 0)
(0.670287 0.343476 0)
(0.624072 0.35137 0)
(0.579729 0.340049 0)
(0.524819 0.330405 0)
(0.458818 0.348342 0)
(0.379053 0.386369 0)
(0.285541 0.438891 0)
(0.177795 0.494213 0)
(0.0578722 0.544013 0)
(3 -2.65886e-16 0)
(3 -3.6782e-16 0)
(3 -4.54308e-16 0)
(3 -2.07784e-16 0)
(3 -3.93094e-16 0)
(3 -6.15303e-16 0)
(3 -1.10888e-15 0)
(3 -1.34667e-15 0)
(3 -8.55542e-16 0)
(3 -5.65105e-16 0)
(3 -4.10033e-16 0)
(3 1.53808e-15 0)
(3 8.74074e-16 0)
(2.78628 0.189047 0)
(0.973274 0.375226 0)
(0.738097 0.375382 0)
(0.694943 0.39155 0)
(0.645952 0.392591 0)
(0.587219 0.394309 0)
(0.514013 0.425303 0)
(0.428474 0.482001 0)
(0.337439 0.550949 0)
(0.235626 0.621677 0)
(0.0968741 0.692321 0)
(3 -6.27808e-17 0)
(3 -4.77173e-17 0)
(3 4.78131e-16 0)
(3 9.39448e-16 0)
(3 1.06671e-15 0)
(3 1.13519e-15 0)
(3 4.81154e-16 0)
(3 3.73883e-16 0)
(3 3.51906e-16 0)
(3 1.46159e-16 0)
(3 5.81284e-17 0)
(3 2.73114e-16 0)
(3 5.6434e-16 0)
(3.02149 0.0311458 0)
(1.14068 0.394607 0)
(0.781275 0.430865 0)
(0.720499 0.462402 0)
(0.654721 0.463096 0)
(0.589538 0.46975 0)
(0.525402 0.510078 0)
(0.463405 0.575901 0)
(0.390619 0.663212 0)
(0.27247 0.788818 0)
(0.148205 0.959364 0)
(3 -2.29462e-17 0)
(3 2.74682e-17 0)
(3 7.02236e-17 0)
(3 3.00725e-16 0)
(3 4.69608e-16 0)
(3 1.00485e-15 0)
(3 1.35898e-15 0)
(3 8.03492e-16 0)
(3 4.70194e-16 0)
(3 3.82306e-16 0)
(3 4.07992e-16 0)
(3 4.13094e-16 0)
(3 9.47444e-16 0)
(3.00271 0.000658517 0)
(1.38359 0.430984 0)
(0.776615 0.49242 0)
(0.702772 0.527185 0)
(0.655478 0.528087 0)
(0.612507 0.53614 0)
(0.569684 0.575784 0)
(0.528673 0.650015 0)
(0.491234 0.773973 0)
(0.467269 0.948342 0)
(0.589428 1.23703 0)
(3 -1.89056e-16 0)
(3 -3.08419e-16 0)
(3 -3.38897e-17 0)
(3 -1.59548e-16 0)
(3 -4.81471e-16 0)
(3 -4.80276e-16 0)
(3 -4.02567e-16 0)
(3 -8.5319e-16 0)
(3 -1.23345e-15 0)
(3 -6.16727e-16 0)
(3 7.09065e-16 0)
(3 1.16427e-15 0)
(3 1.04552e-15 0)
(3.00001 4.22243e-07 0)
(1.89432 0.487615 0)
(0.84446 0.581916 0)
(0.741307 0.581198 0)
(0.708967 0.579393 0)
(0.679847 0.586704 0)
(0.65186 0.624729 0)
(0.634123 0.702689 0)
(0.630558 0.83177 0)
(0.697799 0.97893 0)
(0.992089 1.15448 0)
(3 3.63949e-17 0)
(3 3.28864e-16 0)
(3 2.26772e-16 0)
(3 -2.0456e-16 0)
(3 -5.74401e-16 0)
(3 -8.64121e-16 0)
(3 -8.42149e-16 0)
(3 -4.72105e-16 0)
(3 -3.86749e-16 0)
(3 1.13017e-17 0)
(3 2.82326e-18 0)
(3 -3.35914e-16 0)
(3 -5.21469e-16 0)
(3 -4.16453e-08 0)
(2.68757 0.323899 0)
(1.03972 0.630656 0)
(0.84327 0.606953 0)
(0.81371 0.607137 0)
(0.787113 0.62507 0)
(0.760498 0.667397 0)
(0.757787 0.745837 0)
(0.780011 0.861043 0)
(0.899097 0.981116 0)
(1.20914 1.0864 0)
(3 -6.79132e-17 0)
(3 2.03559e-16 0)
(3 -8.37101e-17 0)
(3 -4.45197e-16 0)
(3 -5.67073e-16 0)
(3 -7.75819e-16 0)
(3 -9.23999e-16 0)
(3 5.27521e-18 0)
(3 5.58775e-16 0)
(3 4.21811e-16 0)
(3 -6.4546e-16 0)
(3 -1.73312e-15 0)
(3 -1.98969e-15 0)
(3 -1.1365e-08 0)
(3.07058 0.0349386 0)
(1.31748 0.62017 0)
(0.913294 0.680165 0)
(0.872493 0.67807 0)
(0.851214 0.689132 0)
(0.844667 0.721715 0)
(0.861738 0.782395 0)
(0.911772 0.867283 0)
(1.04841 0.958336 0)
(1.308 1.01742 0)
(3 -2.02669e-17 0)
(3 -8.07745e-17 0)
(3 -3.28984e-16 0)
(3 -2.18706e-16 0)
(3 -4.11773e-16 0)
(3 -7.13816e-16 0)
(3 -1.0653e-15 0)
(3 -1.20649e-15 0)
(3 7.91443e-17 0)
(3 3.05683e-16 0)
(3 -7.60615e-16 0)
(3 -1.15035e-15 0)
(3 -1.24148e-15 0)
(3 -4.65119e-10 0)
(3.00389 0.000206274 0)
(1.83496 0.632092 0)
(0.967348 0.755013 0)
(0.922543 0.734275 0)
(0.912723 0.729763 0)
(0.920683 0.750342 0)
(0.952354 0.797569 0)
(1.02221 0.867389 0)
(1.15971 0.938271 0)
(1.37183 0.978933 0)
(3 2.72018e-16 0)
(3 -1.8341e-16 0)
(3 -1.88931e-16 0)
(3 1.71913e-16 0)
(3 1.51236e-16 0)
(3 1.4629e-16 0)
(3 4.22128e-16 0)
(3 4.91261e-16 0)
(3 6.57407e-16 0)
(3 5.23954e-16 0)
(3 4.28252e-17 0)
(3 1.42731e-17 0)
(3 4.88035e-16 0)
(3 -2.85367e-12 0)
(3.00001 -1.44322e-08 0)
(2.82311 0.308358 0)
(1.1971 0.763017 0)
(1.01196 0.75893 0)
(1.00322 0.753372 0)
(1.00192 0.766528 0)
(1.03258 0.803929 0)
(1.1051 0.853211 0)
(1.22858 0.902994 0)
(1.39624 0.931118 0)
(3 -2.45021e-16 0)
(3 5.38233e-17 0)
(3 6.50641e-16 0)
(3 5.49326e-16 0)
(3 4.24598e-16 0)
(3 8.98769e-16 0)
(3 1.85321e-15 0)
(3 2.00884e-15 0)
(3 1.02884e-15 0)
(3 -3.11498e-16 0)
(3 -8.50592e-17 0)
(3 6.60315e-16 0)
(3 8.09401e-16 0)
(3 -8.6822e-17 0)
(3 -1.67655e-07 0)
(3.0521 0.0175656 0)
(1.57555 0.738299 0)
(1.05384 0.825276 0)
(1.04979 0.821786 0)
(1.0613 0.820614 0)
(1.09681 0.831066 0)
(1.16959 0.858428 0)
(1.27842 0.889673 0)
(1.41612 0.909078 0)
(3 -9.00421e-17 0)
(3 4.66315e-16 0)
(3 8.32566e-16 0)
(3 6.78803e-16 0)
(3 9.61959e-16 0)
(3 1.47283e-15 0)
(3 1.37859e-15 0)
(3 1.4695e-15 0)
(3 -2.02649e-16 0)
(3 -1.15425e-15 0)
(3 -3.21268e-16 0)
(3 -3.11551e-16 0)
(3 -4.43719e-16 0)
(3 -2.39708e-17 0)
(3 -3.07142e-08 0)
(3.00114 0.000191686 0)
(2.50869 0.516027 0)
(1.20301 0.850864 0)
(1.11222 0.827665 0)
(1.14141 0.823248 0)
(1.17148 0.834101 0)
(1.2299 0.85226 0)
(1.31953 0.8736 0)
(1.43351 0.889059 0)
(3 1.20557e-16 0)
(3 6.96583e-17 0)
(3 7.9613e-18 0)
(3 5.66272e-16 0)
(3 1.3302e-15 0)
(3 9.45653e-16 0)
(3 6.74578e-16 0)
(3 5.8784e-16 0)
(3 -4.29004e-16 0)
(3 -9.15032e-16 0)
(3 -6.42597e-16 0)
(3 -7.89411e-16 0)
(3 -7.45366e-16 0)
(3 -1.10829e-15 0)
(3 -2.43054e-09 0)
(3 1.05093e-07 0)
(3.06385 0.056752 0)
(1.59504 0.805047 0)
(1.16214 0.870569 0)
(1.18506 0.86955 0)
(1.22156 0.87292 0)
(1.2729 0.881023 0)
(1.34867 0.89069 0)
(1.4426 0.897729 0)
(3 -2.77544e-17 0)
(3 -2.8648e-16 0)
(3 -4.837e-16 0)
(3 -4.17127e-16 0)
(3 -1.56855e-16 0)
(3 1.56796e-16 0)
(3 1.12964e-16 0)
(3 -1.7927e-16 0)
(3 -9.70591e-16 0)
(3 -2.13956e-15 0)
(3 -2.37496e-15 0)
(3 -1.854e-15 0)
(3 -2.05976e-15 0)
(3 -1.28459e-15 0)
(3 -1.6647e-11 0)
(3 -1.50299e-07 0)
(3.00405 0.00121978 0)
(2.51061 0.564277 0)
(1.2904 0.906894 0)
(1.23309 0.876054 0)
(1.28381 0.86884 0)
(1.32773 0.877454 0)
(1.39119 0.884365 0)
(1.46718 0.888864 0)
(3 4.98502e-17 0)
(3 6.43676e-17 0)
(3 -1.05227e-17 0)
(3 -3.66383e-16 0)
(3 -6.19123e-16 0)
(3 -6.51608e-16 0)
(3 -7.41393e-16 0)
(3 -6.50703e-16 0)
(3 -1.13906e-15 0)
(3 -1.51549e-15 0)
(3 -2.69795e-15 0)
(3 -2.4983e-15 0)
(3 -2.80118e-15 0)
(3 -1.33181e-15 0)
(3 -3.66051e-14 0)
(3 -4.71149e-08 0)
(3.00001 4.07316e-06 0)
(3.05434 0.0617039 0)
(1.72797 0.826501 0)
(1.27881 0.912358 0)
(1.31327 0.910134 0)
(1.35631 0.915625 0)
(1.41215 0.916845 0)
(1.47994 0.915668 0)
(3 7.71822e-17 0)
(3 1.18147e-16 0)
(3 2.27059e-16 0)
(3 -2.31479e-17 0)
(3 -7.30855e-16 0)
(3 -1.46193e-15 0)
(3 -1.29034e-15 0)
(3 -1.21794e-15 0)
(3 -4.92945e-16 0)
(3 -7.13865e-16 0)
(3 -7.56562e-16 0)
(3 -1.64619e-15 0)
(3 -1.78349e-15 0)
(3 -1.83636e-15 0)
(3 -3.46865e-16 0)
(3 -3.41387e-09 0)
(3 -1.51828e-09 0)
(3.00327 0.00177425 0)
(2.67895 0.470579 0)
(1.46034 0.949534 0)
(1.35033 0.918314 0)
(1.403 0.913641 0)
(1.44964 0.91301 0)
(1.51133 0.909942 0)
(3 -4.49344e-17 0)
(3 -9.74845e-17 0)
(3 -8.06304e-17 0)
(3 -3.37028e-17 0)
(3 -5.87341e-16 0)
(3 -9.12998e-16 0)
(3 -9.64962e-16 0)
(3 -6.78089e-16 0)
(3 -3.41576e-16 0)
(3 3.17072e-16 0)
(3 5.00571e-16 0)
(3 -8.34482e-17 0)
(3 -7.12736e-16 0)
(3 -1.48417e-15 0)
(3 -4.77443e-16 0)
(3 -2.06051e-11 0)
(3 -2.52063e-10 0)
(3.00001 6.50547e-06 0)
(3.03417 0.0363819 0)
(2.02707 0.809544 0)
(1.42308 0.958423 0)
(1.43262 0.948831 0)
(1.47837 0.942022 0)
(1.53041 0.938298 0)
(3 4.14011e-17 0)
(3 1.78708e-16 0)
(3 3.17967e-16 0)
(3 2.15748e-16 0)
(3 -2.5274e-17 0)
(3 -4.35943e-16 0)
(3 -5.31805e-16 0)
(3 -4.05408e-16 0)
(3 -2.16731e-16 0)
(3 5.16161e-16 0)
(3 1.01939e-15 0)
(3 5.93873e-16 0)
(3 3.45317e-16 0)
(3 -1.65048e-15 0)
(3 -1.07409e-15 0)
(3 -1.01348e-14 0)
(3 -5.96802e-12 0)
(3 1.46114e-09 0)
(3.00099 0.00117646 0)
(2.88401 0.275949 0)
(1.75502 0.922673 0)
(1.46625 0.966248 0)
(1.52539 0.951376 0)
(1.56901 0.941152 0)
(3 -4.79328e-17 0)
(3 -1.61481e-16 0)
(3 -3.32125e-17 0)
(3 -3.28742e-16 0)
(3 2.44728e-17 0)
(3 -2.22375e-16 0)
(3 -2.38093e-16 0)
(3 -4.56791e-16 0)
(3 -5.64548e-17 0)
(3 6.54178e-16 0)
(3 5.26626e-16 0)
(3 5.86862e-16 0)
(3 3.40315e-16 0)
(3 8.49527e-16 0)
(3 -1.43179e-15 0)
(3 -1.89236e-15 0)
(3 -8.38092e-14 0)
(3 -2.76496e-15 0)
(3 3.13801e-06 0)
(3.00824 0.0169933 0)
(2.49966 0.600183 0)
(1.63107 0.994288 0)
(1.54734 0.979593 0)
(1.60393 0.964344 0)
(3 3.48798e-17 0)
(3 -2.59994e-16 0)
(3 -4.35237e-16 0)
(3 -2.89413e-16 0)
(3 5.87766e-16 0)
(3 1.0703e-15 0)
(3 5.00037e-16 0)
(3 -3.45399e-16 0)
(3 -5.73573e-16 0)
(3 -5.92226e-16 0)
(3 8.62077e-17 0)
(3 6.35447e-16 0)
(3 8.53187e-16 0)
(3 1.43155e-15 0)
(3 8.08081e-16 0)
(3 -7.97419e-16 0)
(3 -1.8814e-15 0)
(3 -6.57081e-14 0)
(3 1.02463e-09 0)
(3.00004 0.000288866 0)
(2.99284 0.0840801 0)
(2.1779 0.804086 0)
(1.62293 1.00372 0)
(1.61954 1.00297 0)
(3 1.22095e-17 0)
(3 -2.38677e-16 0)
(3 -1.58162e-16 0)
(3 2.83337e-16 0)
(3 5.82359e-16 0)
(3 4.49696e-16 0)
(3 7.0022e-16 0)
(3 1.59474e-17 0)
(3 -5.68502e-16 0)
(3 -1.11446e-15 0)
(3 -5.62398e-16 0)
(3 4.92165e-17 0)
(3 1.73139e-15 0)
(3 1.72346e-15 0)
(3 9.5173e-16 0)
(3 2.23699e-16 0)
(3 -5.08899e-16 0)
(3 -3.27799e-14 0)
(3 5.682e-14 0)
(3 3.74397e-07 0)
(3.0005 0.0034585 0)
(2.87871 0.256505 0)
(1.99845 0.890471 0)
(1.68434 1.008 0)
(3 9.55082e-18 0)
(3 -3.71263e-17 0)
(3 3.06126e-16 0)
(3 4.28578e-16 0)
(3 -2.10833e-17 0)
(3 -3.8837e-16 0)
(3 -7.68822e-17 0)
(3 7.10631e-16 0)
(3 7.9714e-16 0)
(3 4.91715e-16 0)
(3 -1.21876e-16 0)
(3 7.01539e-17 0)
(3 7.48038e-16 0)
(3 1.09548e-15 0)
(3 1.27634e-15 0)
(3 1.24765e-15 0)
(3 1.08712e-15 0)
(3 -3.72893e-15 0)
(3 -8.7786e-15 0)
(3 1.14629e-10 0)
(3 1.52211e-05 0)
(2.99946 0.017331 0)
(2.69422 0.435541 0)
(1.9247 0.941407 0)
(3 2.17142e-16 0)
(3 3.15123e-16 0)
(3 6.15461e-16 0)
(3 2.88627e-16 0)
(3 6.22617e-18 0)
(3 -4.76829e-17 0)
(3 -1.53866e-16 0)
(3 -4.21873e-18 0)
(3 6.68795e-16 0)
(3 7.60559e-16 0)
(3 7.90223e-16 0)
(3 3.82089e-16 0)
(3 -2.88499e-16 0)
(3 4.50339e-16 0)
(3 1.47269e-15 0)
(3 1.24393e-15 0)
(3 8.37417e-16 0)
(3 1.1581e-15 0)
(3 -3.16935e-15 0)
(3 5.79663e-15 0)
(3 1.02631e-08 0)
(2.99997 0.00021885 0)
(2.99033 0.0442225 0)
(2.52754 0.575615 0)
(3 7.68394e-17 0)
(3 4.12468e-17 0)
(3 -1.49088e-16 0)
(3 8.86482e-17 0)
(3 9.64847e-17 0)
(3 1.36244e-16 0)
(3 -5.24738e-18 0)
(3 -4.05554e-17 0)
(3 -1.16111e-16 0)
(3 -2.10183e-16 0)
(3 -5.79169e-17 0)
(3 3.52718e-17 0)
(3 2.73123e-16 0)
(3 2.21986e-16 0)
(3 7.52973e-17 0)
(3 -3.44558e-16 0)
(3 -5.28162e-16 0)
(3 1.31646e-16 0)
(3 -1.16529e-15 0)
(3 -1.39148e-15 0)
(3 1.45085e-12 0)
(3 2.91375e-07 0)
(2.99983 0.00114603 0)
(2.96813 0.0845807 0)
(3 -3.51751e-17 0)
(3 -1.12224e-16 0)
(3 -6.82584e-16 0)
(3 -4.11906e-16 0)
(3 -6.35758e-16 0)
(3 -1.97425e-16 0)
(3 1.72125e-16 0)
(3 7.03238e-17 0)
(3 5.20182e-17 0)
(3 -3.79199e-17 0)
(3 -4.91811e-16 0)
(3 2.69732e-17 0)
(3 1.51061e-16 0)
(3 -9.56854e-17 0)
(3 -1.54254e-15 0)
(3 -1.67278e-15 0)
(3 -1.31045e-15 0)
(3 -9.87322e-16 0)
(3 -1.01783e-15 0)
(3 -1.32756e-15 0)
(3 -1.52504e-16 0)
(3 8.96083e-11 0)
(3 2.81518e-06 0)
(2.99946 0.00334265 0)
(3 -9.31943e-17 0)
(3 -2.8491e-16 0)
(3 -1.04333e-16 0)
(3 -2.01801e-16 0)
(3 2.4502e-17 0)
(3 3.0374e-16 0)
(3 2.56871e-16 0)
(3 -3.73978e-17 0)
(3 -1.28338e-17 0)
(3 2.54724e-16 0)
(3 3.70128e-16 0)
(3 5.29564e-16 0)
(3 2.29868e-16 0)
(3 1.0839e-16 0)
(3 -7.57654e-16 0)
(3 -1.04501e-15 0)
(3 -7.89094e-16 0)
(3 -8.61874e-16 0)
(3 -1.14131e-15 0)
(3 -7.76564e-16 0)
(3 -9.74234e-16 0)
(3 5.41735e-15 0)
(3 1.72766e-09 0)
(3 1.30476e-05 0)
(3 6.38072e-17 0)
(3 -1.63069e-17 0)
(3 3.2001e-16 0)
(3 2.09233e-16 0)
(3 4.93182e-16 0)
(3 2.73067e-16 0)
(3 3.72783e-16 0)
(3 6.83628e-16 0)
(3 7.32445e-16 0)
(3 5.49649e-16 0)
(3 7.07487e-16 0)
(3 5.99145e-16 0)
(3 1.75772e-16 0)
(3 -1.2968e-16 0)
(3 -7.42511e-16 0)
(3 -7.94692e-17 0)
(3 -1.33695e-16 0)
(3 -3.65873e-16 0)
(3 -1.44322e-16 0)
(3 -6.14121e-16 0)
(3 -6.48784e-16 0)
(3 -9.46328e-16 0)
(3 1.30501e-13 0)
(3 1.17269e-08 0)
(3 6.99243e-17 0)
(3 6.88623e-17 0)
(3 1.94456e-17 0)
(3 1.99759e-16 0)
(3 -2.84902e-16 0)
(3 2.44733e-16 0)
(3 8.17899e-16 0)
(3 8.93281e-16 0)
(3 9.09027e-16 0)
(3 8.41975e-16 0)
(3 -3.37449e-16 0)
(3 -1.26873e-15 0)
(3 -1.05016e-15 0)
(3 -1.01498e-15 0)
(3 -1.18734e-15 0)
(3 -1.22506e-16 0)
(3 -2.53123e-17 0)
(3 5.15933e-17 0)
(3 1.5973e-15 0)
(3 1.71328e-15 0)
(3 2.5629e-16 0)
(3 -1.85523e-16 0)
(3 -9.38736e-16 0)
(3 1.3291e-12 0)
(3 4.71669e-17 0)
(3 1.06528e-16 0)
(3 2.45889e-16 0)
(3 3.70902e-16 0)
(3 5.33528e-16 0)
(3 6.63332e-16 0)
(3 2.97445e-16 0)
(3 -6.44188e-16 0)
(3 -5.42443e-16 0)
(3 -6.01806e-16 0)
(3 -1.18831e-15 0)
(3 -1.68072e-15 0)
(3 -7.84955e-16 0)
(3 3.25814e-17 0)
(3 9.92896e-16 0)
(3 1.33702e-15 0)
(3 1.20617e-15 0)
(3 4.90538e-16 0)
(3 5.19318e-16 0)
(3 1.03341e-15 0)
(3 6.43201e-16 0)
(3 1.15611e-16 0)
(3 -4.14596e-16 0)
(3 -2.1796e-15 0)
(3 -7.62966e-19 0)
(3 9.58665e-17 0)
(3 2.45179e-16 0)
(3 1.2305e-16 0)
(3 2.24334e-16 0)
(3 7.16373e-17 0)
(3 -3.95958e-16 0)
(3 -1.47515e-15 0)
(3 -1.52369e-15 0)
(3 -9.83957e-16 0)
(3 -5.19072e-16 0)
(3 -2.80239e-16 0)
(3 2.03845e-16 0)
(3 3.62279e-16 0)
(3 8.90464e-16 0)
(3 1.9297e-15 0)
(3 2.34526e-15 0)
(3 1.10434e-15 0)
(3 2.27865e-16 0)
(3 6.86554e-16 0)
(3 7.50855e-16 0)
(3 -2.21281e-16 0)
(3 -6.19347e-16 0)
(3 -2.0415e-15 0)
(3 -1.32605e-17 0)
(3 -2.61768e-17 0)
(3 -8.97814e-17 0)
(3 -9.45665e-17 0)
(3 -1.87008e-16 0)
(3 -6.13514e-16 0)
(3 -1.30122e-15 0)
(3 -1.52915e-15 0)
(3 -1.79756e-15 0)
(3 -6.02574e-16 0)
(3 1.03588e-15 0)
(3 1.344e-15 0)
(3 1.42989e-15 0)
(3 4.15935e-16 0)
(3 -3.622e-16 0)
(3 -1.90402e-16 0)
(3 5.33781e-16 0)
(3 1.05288e-15 0)
(3 1.27959e-15 0)
(3 1.00929e-15 0)
(3 4.20782e-16 0)
(3 -2.75534e-16 0)
(3 -9.79193e-16 0)
(3 -1.06365e-15 0)
(3 -8.29456e-17 0)
(3 -2.63347e-16 0)
(3 -4.38729e-16 0)
(3 -2.9362e-16 0)
(3 -1.91532e-16 0)
(3 1.48045e-16 0)
(3 -2.42719e-16 0)
(3 -7.44811e-17 0)
(3 -3.55606e-17 0)
(3 4.54802e-16 0)
(3 1.38818e-15 0)
(3 1.40764e-15 0)
(3 6.10554e-16 0)
(3 -5.92593e-16 0)
(3 -1.31946e-15 0)
(3 -1.86353e-15 0)
(3 -1.25946e-15 0)
(3 1.10231e-15 0)
(3 1.75153e-15 0)
(3 2.55587e-16 0)
(3 -1.53339e-16 0)
(3 -2.31949e-16 0)
(3 8.39026e-17 0)
(3 3.38258e-17 0)
(3 1.46673e-16 0)
(3 3.33638e-17 0)
(3 -3.48195e-16 0)
(3 -1.09255e-15 0)
(3 -9.37399e-16 0)
(3 -4.33848e-16 0)
(3 6.98945e-16 0)
(3 7.69102e-16 0)
(3 9.50556e-16 0)
(3 1.73045e-15 0)
(3 1.87693e-15 0)
(3 1.60334e-15 0)
(3 -3.5831e-17 0)
(3 -1.01161e-15 0)
(3 -1.12769e-15 0)
(3 -1.75701e-15 0)
(3 -5.20057e-16 0)
(3 1.38378e-15 0)
(3 5.32101e-16 0)
(3 2.77552e-16 0)
(3 -5.15191e-17 0)
(3 -5.60509e-16 0)
(3 -8.11246e-16 0)
(3 -1.22441e-15 0)
(3 1.25055e-16 0)
(3 2.05123e-16 0)
(3 -7.18744e-16 0)
(3 -1.17094e-15 0)
(3 -9.50297e-16 0)
(3 -9.01965e-16 0)
(3 -3.24478e-17 0)
(3 3.04449e-16 0)
(3 1.16327e-15 0)
(3 1.39785e-15 0)
(3 1.20988e-15 0)
(3 9.14704e-16 0)
(3 -7.33294e-16 0)
(3 -2.18176e-15 0)
(3 -2.59813e-15 0)
(3 -7.45524e-16 0)
(3 1.05946e-15 0)
(3 1.5402e-15 0)
(3 4.47464e-16 0)
(3 1.05998e-16 0)
(3 -1.19973e-15 0)
(3 -2.34371e-15 0)
(3 -2.74421e-15 0)
(3 -3.33027e-15 0)
(3 -2.38484e-16 0)
(3 -1.31123e-16 0)
(3 2.06573e-16 0)
(3 4.26391e-16 0)
(3 2.7629e-16 0)
(3 4.59875e-16 0)
(3 -1.48828e-18 0)
(3 -2.23612e-16 0)
(3 -4.9194e-16 0)
(3 -2.17953e-16 0)
(3 1.41683e-16 0)
(3 1.56235e-16 0)
(3 -4.0988e-16 0)
(3 -1.13202e-15 0)
(3 -1.46755e-15 0)
(3 4.32843e-16 0)
(3 6.44243e-16 0)
(3 5.9414e-16 0)
(3 3.02939e-16 0)
(3 -9.17546e-16 0)
(3 -1.25304e-15 0)
(3 -2.96301e-15 0)
(3 -3.02217e-15 0)
(3 -2.96164e-15 0)
(3 -1.47764e-16 0)
(3 -4.40612e-17 0)
(3 9.82567e-16 0)
(3 1.41249e-15 0)
(3 1.10667e-15 0)
(3 9.34261e-16 0)
(3 2.95585e-16 0)
(3 -1.97445e-16 0)
(3 -7.80103e-16 0)
(3 -1.37827e-16 0)
(3 4.085e-16 0)
(3 5.03427e-16 0)
(3 2.28742e-16 0)
(3 6.03548e-17 0)
(3 -5.03929e-19 0)
(3 4.12751e-16 0)
(3 1.72107e-16 0)
(3 -2.35746e-16 0)
(3 -1.17273e-16 0)
(3 -2.36943e-17 0)
(3 3.71301e-18 0)
(3 -6.77211e-16 0)
(3 -1.91004e-15 0)
(3 -2.20046e-15 0)
(1.5644 1.30975 0)
(2.14332 1.35222 0)
(2.40869 1.51569 0)
(2.50541 0.777328 0)
(2.61428 0.369018 0)
(2.70572 0.0239148 0)
(2.72831 -0.182987 0)
(2.75363 -0.262654 0)
(2.67438 -0.254276 0)
(2.61009 -0.340314 0)
(2.6429 -0.398094 0)
(2.63403 -0.266708 0)
(2.59358 -0.163516 0)
(2.54648 -0.151271 0)
(2.55682 -0.127192 0)
(2.57243 -0.0830719 0)
(2.58683 -0.0516237 0)
(2.59275 -0.0413141 0)
(2.60643 -0.0354042 0)
(2.62328 -0.0263165 0)
(2.62565 -0.0214939 0)
(2.62241 -0.01681 0)
(2.6205 -0.0140666 0)
(2.6273 -0.00446801 0)
(2.6351 0.00309094 0)
(2.64381 0.00563197 0)
(2.65809 0.00384157 0)
(2.67752 -0.000628597 0)
(2.69545 -0.00317419 0)
(2.71137 -0.00281166 0)
(2.7139 -0.00317074 0)
(2.71439 -0.00503594 0)
(2.71775 -0.00987145 0)
(2.72592 -0.013161 0)
(2.74261 -0.0108768 0)
(2.75907 -0.00882626 0)
(2.77015 -0.00390852 0)
(2.78003 -0.00111883 0)
(2.79178 -0.00105845 0)
(2.80558 -0.00264326 0)
(2.82009 -0.00354565 0)
(2.83377 -0.00280533 0)
(2.84286 -0.000254347 0)
(2.84327 0.00178604 0)
(2.85359 0.0016166 0)
(2.86563 0.00168114 0)
(2.87462 0.00199223 0)
(2.88204 0.00266747 0)
(2.88874 0.00282702 0)
(2.89661 0.00235214 0)
(2.90462 0.00194708 0)
(2.90976 0.000936948 0)
(2.91112 -0.00174071 0)
(2.91345 -0.00617157 0)
(2.92299 -0.00806907 0)
(2.93825 -0.0062762 0)
(2.95209 -0.00363371 0)
(2.96218 -0.00249022 0)
(2.97028 -0.00390368 0)
(2.97876 -0.00544521 0)
(2.98633 -0.00391995 0)
(2.99033 0.000198039 0)
(2.99399 0.00171315 0)
(2.99534 0.00203739 0)
(2.9967 0.0029334 0)
(2.99532 0.00368097 0)
(2.9927 0.00404577 0)
(2.98925 0.00456112 0)
(2.98305 0.00515447 0)
(2.97495 0.00742982 0)
(2.96708 0.0109111 0)
(2.96454 0.0118687 0)
(2.9609 0.011961 0)
(2.95959 0.00946402 0)
(2.95487 0.00502574 0)
(2.94197 0.00123725 0)
(2.93221 0.000204672 0)
(2.92004 0.000498448 0)
(2.89093 0.00486258 0)
(2.86765 0.0107902 0)
(2.85989 0.012541 0)
(2.84977 0.0142863 0)
(2.84469 0.0135167 0)
(2.84712 0.00964829 0)
(2.83907 0.00542627 0)
(2.82583 0.00419349 0)
(2.81556 0.00354246 0)
(2.79056 0.00400668 0)
(2.7674 0.00535075 0)
(2.76204 0.00564222 0)
(2.75767 0.00549143 0)
(2.75564 0.00720144 0)
(2.75536 0.0108793 0)
(2.75813 0.0137884 0)
(2.76853 0.00556253 0)
(2.76215 -0.00383026 0)
(1.81244 1.11411 0)
(2.36365 0.7527 0)
(2.61411 0.415044 0)
(2.74957 0.206444 0)
(2.83254 -0.190024 0)
(2.82683 -0.530996 0)
(2.82495 -0.586097 0)
(2.88242 -0.595109 0)
(2.8886 -0.534703 0)
(2.8457 -0.501827 0)
(2.8107 -0.4658 0)
(2.7291 -0.318676 0)
(2.66511 -0.196814 0)
(2.6173 -0.173263 0)
(2.60252 -0.153669 0)
(2.60633 -0.0868929 0)
(2.6168 -0.0274861 0)
(2.62279 -0.0140085 0)
(2.63413 -0.00332997 0)
(2.63411 0.00753863 0)
(2.62642 0.0137315 0)
(2.61415 0.00860466 0)
(2.61613 -0.00487864 0)
(2.62822 -0.00604522 0)
(2.63967 0.0045482 0)
(2.64781 0.0108601 0)
(2.65778 0.00600653 0)
(2.67542 -0.00508506 0)
(2.69751 -0.00774385 0)
(2.71507 -0.00613602 0)
(2.7177 -0.00549185 0)
(2.72369 -0.00861993 0)
(2.73124 -0.0176437 0)
(2.74006 -0.0244971 0)
(2.75405 -0.0218197 0)
(2.76977 -0.0125904 0)
(2.78137 -0.00249419 0)
(2.7924 0.00392519 0)
(2.80621 0.00821924 0)
(2.82152 0.00962375 0)
(2.83537 0.00777471 0)
(2.84601 0.00635129 0)
(2.85117 0.0048642 0)
(2.85133 -0.00144597 0)
(2.86194 -0.00421934 0)
(2.8754 -0.00306998 0)
(2.88721 -0.00110683 0)
(2.89757 0.00263441 0)
(2.90635 0.00808428 0)
(2.91417 0.0140844 0)
(2.9198 0.0198308 0)
(2.92168 0.0208444 0)
(2.9192 0.0170233 0)
(2.91952 0.00532998 0)
(2.93311 -0.00592649 0)
(2.9452 -0.0133443 0)
(2.95825 -0.0144527 0)
(2.97223 -0.0131507 0)
(2.9851 -0.0137842 0)
(2.99563 -0.0180146 0)
(3.00232 -0.0190776 0)
(3.00236 -0.0116283 0)
(2.99915 -0.00396515 0)
(2.99906 -0.00308093 0)
(2.99935 -0.00365177 0)
(2.99945 -0.00438564 0)
(2.99833 -0.0047965 0)
(2.99686 -0.00513214 0)
(2.99554 -0.00490789 0)
(2.99165 -0.000954426 0)
(2.98395 0.0108446 0)
(2.97756 0.0216781 0)
(2.97307 0.0265965 0)
(2.96647 0.0300452 0)
(2.95554 0.0238518 0)
(2.94261 0.0151408 0)
(2.93109 0.00497415 0)
(2.91818 -0.00571104 0)
(2.89727 -0.00967957 0)
(2.87763 0.00191404 0)
(2.87029 0.0129548 0)
(2.86407 0.0250243 0)
(2.85731 0.0363952 0)
(2.85326 0.0350543 0)
(2.84759 0.0205492 0)
(2.83318 0.00706407 0)
(2.82081 -0.00156867 0)
(2.80335 -0.00694974 0)
(2.78248 -0.00434912 0)
(2.77547 -0.00129377 0)
(2.77242 0.00261678 0)
(2.7687 0.0105952 0)
(2.76364 0.0191741 0)
(2.76164 0.0313173 0)
(2.77373 0.0273186 0)
(2.76632 -0.00171154 0)
(1.72996 1.03915 0)
(2.03642 0.951109 0)
(2.39412 0.648735 0)
(2.66644 0.27989 0)
(2.72623 0.196614 0)
(2.76159 -0.0129377 0)
(2.79642 -0.156126 0)
(2.8383 -0.140906 0)
(2.89222 -0.267979 0)
(2.89455 -0.396297 0)
(2.89819 -0.482767 0)
(2.87715 -0.455706 0)
(2.82149 -0.428324 0)
(2.79079 -0.403208 0)
(2.76949 -0.344614 0)
(2.71989 -0.238712 0)
(2.7006 -0.138651 0)
(2.69667 -0.0944912 0)
(2.69542 -0.0783771 0)
(2.6767 -0.0425449 0)
(2.66664 -0.00577047 0)
(2.66087 -0.0024884 0)
(2.66729 -0.000788652 0)
(2.67081 0.00182767 0)
(2.67474 0.0118019 0)
(2.6774 0.0103765 0)
(2.68685 -0.00184358 0)
(2.69974 -0.0251618 0)
(2.71534 -0.0362795 0)
(2.72935 -0.0333432 0)
(2.73573 -0.0256325 0)
(2.73901 -0.0238763 0)
(2.745 -0.0297989 0)
(2.75115 -0.0324558 0)
(2.76365 -0.0287328 0)
(2.77868 -0.0169957 0)
(2.78724 -0.00728191 0)
(2.80186 -0.00826198 0)
(2.81631 -0.0146283 0)
(2.83289 -0.0170658 0)
(2.84811 -0.0116802 0)
(2.85646 -0.0021122 0)
(2.8561 0.00372459 0)
(2.85752 -0.00156755 0)
(2.87173 -0.00757875 0)
(2.88564 -0.00831346 0)
(2.90025 -0.00747609 0)
(2.91302 -0.00495789 0)
(2.923 -0.000926302 0)
(2.93162 0.00532541 0)
(2.93715 0.0125684 0)
(2.93614 0.0186848 0)
(2.92918 0.0160888 0)
(2.92913 0.00747585 0)
(2.94123 0.0029911 0)
(2.95191 -0.000550951 0)
(2.96417 -0.00233288 0)
(2.97917 -0.00252826 0)
(2.99395 -0.00291785 0)
(3.00551 -0.00367393 0)
(3.01335 -0.00255296 0)
(3.01592 0.00387164 0)
(3.01004 0.0157238 0)
(3.00445 0.0224021 0)
(3.00514 0.0227712 0)
(3.00603 0.0219358 0)
(3.0088 0.0173896 0)
(3.0103 0.00918182 0)
(3.00925 0.00436722 0)
(3.00647 0.00181516 0)
(3.00284 0.00418055 0)
(3.00116 0.0122266 0)
(2.99422 0.023674 0)
(2.9843 0.0306749 0)
(2.97071 0.0327284 0)
(2.95471 0.0300298 0)
(2.93708 0.0262461 0)
(2.92056 0.0226951 0)
(2.90857 0.0170473 0)
(2.89954 0.0121291 0)
(2.89272 0.0133905 0)
(2.88925 0.0251189 0)
(2.88468 0.0414817 0)
(2.87933 0.0479828 0)
(2.86729 0.0473913 0)
(2.85127 0.0400579 0)
(2.83437 0.0258738 0)
(2.8221 0.0105022 0)
(2.81411 0.00172298 0)
(2.80807 -0.00191381 0)
(2.8042 -0.00210348 0)
(2.8002 0.00688804 0)
(2.79702 0.0175937 0)
(2.79663 0.0331874 0)
(2.79621 0.0241104 0)
(2.78069 0.00252954 0)
(1.63472 1.01031 0)
(1.94354 0.879462 0)
(2.23069 0.658033 0)
(2.37174 0.583993 0)
(2.47721 0.470965 0)
(2.6437 0.198557 0)
(2.73448 -0.0514196 0)
(2.77561 -0.100123 0)
(2.80328 -0.202392 0)
(2.83474 -0.375598 0)
(2.85057 -0.43296 0)
(2.88195 -0.46378 0)
(2.88367 -0.476838 0)
(2.87681 -0.476996 0)
(2.85767 -0.449508 0)
(2.81706 -0.370353 0)
(2.78985 -0.307056 0)
(2.7773 -0.257659 0)
(2.77107 -0.216773 0)
(2.75651 -0.165063 0)
(2.74158 -0.111827 0)
(2.73838 -0.104547 0)
(2.73856 -0.0894403 0)
(2.71336 -0.0480806 0)
(2.71074 0.00335066 0)
(2.71605 0.0215457 0)
(2.72729 0.0234763 0)
(2.73223 0.0168217 0)
(2.73755 0.0132456 0)
(2.74189 0.0111043 0)
(2.74635 0.00454979 0)
(2.75103 -0.0043122 0)
(2.75954 -0.0196397 0)
(2.7673 -0.0358808 0)
(2.77355 -0.0405186 0)
(2.78339 -0.0305003 0)
(2.79044 -0.0205053 0)
(2.80774 -0.0179623 0)
(2.81981 -0.0221058 0)
(2.83044 -0.0251435 0)
(2.84249 -0.0219338 0)
(2.85251 -0.0121669 0)
(2.85907 -0.000210727 0)
(2.8639 0.0065195 0)
(2.87387 0.00212115 0)
(2.88648 -0.00400539 0)
(2.90026 -0.00398671 0)
(2.91387 0.00199463 0)
(2.92397 0.0077138 0)
(2.93254 0.00847592 0)
(2.93935 0.00810759 0)
(2.93824 0.00700361 0)
(2.92862 0.00138322 0)
(2.93315 -0.00538585 0)
(2.94314 -0.00732689 0)
(2.95357 -0.00842449 0)
(2.96652 -0.00921727 0)
(2.98132 -0.0088094 0)
(2.99609 -0.00851194 0)
(3.00876 -0.00836683 0)
(3.01809 -0.00668364 0)
(3.02202 -0.00172255 0)
(3.017 0.0080363 0)
(3.00874 0.018718 0)
(3.00882 0.0246078 0)
(3.01425 0.027552 0)
(3.02 0.0289486 0)
(3.02354 0.028595 0)
(3.02383 0.0284117 0)
(3.02154 0.0308056 0)
(3.01942 0.0337212 0)
(3.01597 0.0341224 0)
(3.00941 0.0307428 0)
(2.99586 0.0197062 0)
(2.98176 0.00612312 0)
(2.97366 0.00031636 0)
(2.96429 0.000981387 0)
(2.95319 0.00950283 0)
(2.93964 0.0248705 0)
(2.93142 0.0355678 0)
(2.92305 0.0401002 0)
(2.91782 0.0411804 0)
(2.91326 0.0388186 0)
(2.90859 0.035943 0)
(2.9026 0.0314326 0)
(2.89238 0.02622 0)
(2.88117 0.0217834 0)
(2.87273 0.0197645 0)
(2.86461 0.0177825 0)
(2.85754 0.0124301 0)
(2.85263 0.0079471 0)
(2.84796 0.0107889 0)
(2.8455 0.0174831 0)
(2.84578 0.0293862 0)
(2.84041 0.0239634 0)
(2.81883 0.00748604 0)
(1.60962 0.970031 0)
(1.86655 0.875966 0)
(2.08602 0.730016 0)
(2.21096 0.671069 0)
(2.36609 0.536943 0)
(2.52387 0.294822 0)
(2.59041 0.193907 0)
(2.60973 0.162268 0)
(2.69274 0.00421737 0)
(2.73003 -0.162089 0)
(2.75863 -0.214117 0)
(2.76202 -0.204283 0)
(2.80884 -0.286548 0)
(2.82801 -0.364519 0)
(2.84807 -0.371775 0)
(2.84438 -0.368095 0)
(2.83296 -0.375697 0)
(2.82485 -0.375124 0)
(2.81662 -0.343394 0)
(2.80848 -0.287206 0)
(2.79767 -0.232389 0)
(2.79168 -0.212199 0)
(2.78621 -0.189748 0)
(2.75422 -0.12149 0)
(2.74978 -0.0706245 0)
(2.75276 -0.0545042 0)
(2.7612 -0.0415489 0)
(2.75497 -0.0292366 0)
(2.74622 -0.017063 0)
(2.74245 -0.00306671 0)
(2.74413 0.00165561 0)
(2.75539 0.00805084 0)
(2.76178 0.00660222 0)
(2.76909 0.00197689 0)
(2.7742 -0.0031733 0)
(2.77949 -0.00579135 0)
(2.78876 -0.00931416 0)
(2.80528 -0.0206983 0)
(2.81968 -0.0388651 0)
(2.82368 -0.0487138 0)
(2.83241 -0.0446141 0)
(2.8443 -0.0330172 0)
(2.85431 -0.0217911 0)
(2.86216 -0.00863085 0)
(2.86765 -0.00129328 0)
(2.87489 0.00310719 0)
(2.88596 0.00891276 0)
(2.89824 0.0172901 0)
(2.91092 0.0215997 0)
(2.92431 0.0177326 0)
(2.93276 0.00956155 0)
(2.93156 0.00169218 0)
(2.92205 0.000749054 0)
(2.92544 0.00196464 0)
(2.93477 0.00021721 0)
(2.94444 -0.00248048 0)
(2.95603 -0.00455623 0)
(2.97045 -0.00592365 0)
(2.9831 -0.00600614 0)
(2.99796 -0.00455289 0)
(3.01001 -0.000844171 0)
(3.01676 0.00587675 0)
(3.0136 0.0128757 0)
(3.00377 0.016139 0)
(3.00278 0.0170627 0)
(3.01204 0.0186912 0)
(3.02254 0.0204406 0)
(3.03099 0.0230823 0)
(3.0358 0.0284296 0)
(3.03764 0.0362141 0)
(3.03667 0.0432166 0)
(3.03111 0.0451431 0)
(3.01797 0.0366363 0)
(3.00427 0.0230116 0)
(2.99955 0.0166441 0)
(2.9952 0.0134343 0)
(2.99261 0.0165122 0)
(2.98699 0.0278215 0)
(2.97806 0.0388895 0)
(2.96974 0.0509515 0)
(2.96036 0.0601759 0)
(2.94793 0.0637171 0)
(2.93986 0.058755 0)
(2.9379 0.0547761 0)
(2.93612 0.0482021 0)
(2.93385 0.0377729 0)
(2.93263 0.0294771 0)
(2.92951 0.0258488 0)
(2.92218 0.0259641 0)
(2.91428 0.0269689 0)
(2.90633 0.0289109 0)
(2.90004 0.0326617 0)
(2.89757 0.0347572 0)
(2.89811 0.0373631 0)
(2.8941 0.0240074 0)
(2.87334 0.00517043 0)
(1.59631 0.92223 0)
(1.79679 0.864842 0)
(1.96524 0.788991 0)
(2.10771 0.721396 0)