/*--------------------------------*- C++ -*----------------------------------*\
  =========                 |
  \\      /  F ield         | OpenFOAM: The Open Source CFD Toolbox
   \\    /   O peration     | Website:  https://openfoam.org
    \\  /    A nd           | Version:  7
     \\/     M anipulation  |
\*---------------------------------------------------------------------------*/
FoamFile
{
    version     2.0;
    format      ascii;
    class       volScalarField;
    location    "30";
    object      p;
}
// * * * * * * * * * * * * * * * * * * * * * * * * * * * * * * * * * * * * * //

dimensions      [0 2 -2 0 0 0 0];

internalField   nonuniform List<scalar> 
1987
(
-0.26834
-0.267239
-0.26606
-0.2648
-0.250508
-0.249872
-0.249112
-0.248228
-0.247218
-0.246079
-0.244813
-0.243437
-0.241978
-0.240085
-0.238253
-0.236379
-0.234367
-0.232217
-0.22994
-0.227536
-0.225002
-0.222338
-0.219543
-0.216615
-0.213553
-0.210356
-0.207022
-0.203548
-0.199933
-0.196175
-0.192271
-0.188219
-0.184015
-0.179658
-0.175145
-0.170474
-0.165644
-0.160653
-0.155503
-0.150195
-0.144733
-0.139124
-0.133375
-0.127498
-0.121509
-0.115426
-0.10927
-0.103065
-0.0968408
-0.0906271
-0.0844569
-0.078364
-0.0723833
-0.0665488
-0.0608934
-0.0554478
-0.0502397
-0.0452928
-0.0406268
-0.0362565
-0.247247
-0.246717
-0.246056
-0.245265
-0.244339
-0.243276
-0.24207
-0.240711
-0.23914
-0.237494
-0.235859
-0.234086
-0.232157
-0.230087
-0.227885
-0.225552
-0.223086
-0.220487
-0.217755
-0.214888
-0.211885
-0.208746
-0.205469
-0.202051
-0.198492
-0.194789
-0.19094
-0.186943
-0.182795
-0.178495
-0.174041
-0.16943
-0.164663
-0.159737
-0.154656
-0.14942
-0.144034
-0.138504
-0.132839
-0.12705
-0.121153
-0.115164
-0.109106
-0.103001
-0.0968776
-0.0907645
-0.0846934
-0.0786969
-0.0728083
-0.0670604
-0.061485
-0.0561115
-0.0509666
-0.0460735
-0.0414514
-0.0371149
-0.243601
-0.243183
-0.242629
-0.241939
-0.241111
-0.240142
-0.239025
-0.237753
-0.236327
-0.234828
-0.23324
-0.231521
-0.229659
-0.227661
-0.22553
-0.223267
-0.22087
-0.218338
-0.215671
-0.212869
-0.20993
-0.206853
-0.203637
-0.20028
-0.196781
-0.193139
-0.18935
-0.185414
-0.181329
-0.177092
-0.172702
-0.168158
-0.163459
-0.158606
-0.153599
-0.148442
-0.143139
-0.137696
-0.132122
-0.126429
-0.120631
-0.114746
-0.108793
-0.102797
-0.0967823
-0.0907784
-0.0848151
-0.0789237
-0.0731361
-0.0674838
-0.0619971
-0.0567044
-0.0516314
-0.0468007
-0.0422308
-0.0379361
-0.239788
-0.239481
-0.239034
-0.238449
-0.237723
-0.236853
-0.235837
-0.234677
-0.233383
-0.231974
-0.230448
-0.228797
-0.227013
-0.225092
-0.223037
-0.220848
-0.218524
-0.216064
-0.213467
-0.210734
-0.207863
-0.204853
-0.201703
-0.198412
-0.194979
-0.191402
-0.187679
-0.183809
-0.17979
-0.175621
-0.171301
-0.166829
-0.162204
-0.157427
-0.152501
-0.147427
-0.142211
-0.13686
-0.131381
-0.125788
-0.120093
-0.114314
-0.10847
-0.102584
-0.0966816
-0.090789
-0.0849354
-0.0791508
-0.0734657
-0.0679102
-0.0625134
-0.0573026
-0.0523026
-0.0475351
-0.0430183
-0.0387663
-0.135995
-0.130616
-0.125126
-0.119538
-0.113868
-0.108137
-0.102365
-0.0965763
-0.0907973
-0.0850555
-0.0793796
-0.0737986
-0.0683415
-0.063036
-0.0579083
-0.0529824
-0.0482793
-0.0438166
-0.0396084
-0.26834
-0.267239
-0.26606
-0.2648
-0.26346
-0.262037
-0.260531
-0.258939
-0.25726
-0.255493
-0.253635
-0.251685
-0.249642
-0.247503
-0.245269
-0.24294
-0.240511
-0.237979
-0.235342
-0.232597
-0.229742
-0.226773
-0.223687
-0.220481
-0.217152
-0.213695
-0.210106
-0.206381
-0.202515
-0.198502
-0.194337
-0.190014
-0.185528
-0.180871
-0.176038
-0.171024
-0.165823
-0.160431
-0.154847
-0.149067
-0.143096
-0.136937
-0.130598
-0.124092
-0.117435
-0.110648
-0.103758
-0.096796
-0.0897982
-0.082805
-0.0758602
-0.06901
-0.062302
-0.0557835
-0.0495002
-0.0434949
-0.0378057
-0.0324651
-0.0274989
-0.022926
-0.268377
-0.267276
-0.266096
-0.264837
-0.263496
-0.262073
-0.260567
-0.258975
-0.257297
-0.255529
-0.253672
-0.251723
-0.249679
-0.24754
-0.245307
-0.242978
-0.24055
-0.238019
-0.235382
-0.232638
-0.229783
-0.226815
-0.22373
-0.220526
-0.217197
-0.213742
-0.210154
-0.206431
-0.202566
-0.198555
-0.194392
-0.190071
-0.185587
-0.180933
-0.176103
-0.171091
-0.165893
-0.160504
-0.154922
-0.149146
-0.143177
-0.137021
-0.130684
-0.12418
-0.117524
-0.110739
-0.10385
-0.096888
-0.0898901
-0.0828964
-0.0759505
-0.0690989
-0.0623889
-0.0558681
-0.0495823
-0.043574
-0.0378816
-0.0325377
-0.0275681
-0.0229917
-0.26845
-0.267348
-0.266168
-0.264908
-0.263567
-0.262145
-0.260639
-0.259048
-0.257369
-0.255602
-0.253745
-0.251796
-0.249754
-0.247615
-0.245385
-0.243057
-0.240629
-0.238099
-0.235463
-0.232721
-0.229867
-0.226901
-0.223817
-0.220615
-0.217288
-0.213835
-0.21025
-0.206529
-0.202668
-0.19866
-0.1945
-0.190184
-0.185704
-0.181054
-0.176229
-0.171222
-0.16603
-0.160646
-0.15507
-0.149298
-0.143335
-0.137183
-0.130851
-0.124351
-0.117699
-0.110916
-0.104029
-0.0970685
-0.0900709
-0.0830765
-0.0761291
-0.0692749
-0.0625616
-0.0560367
-0.0497459
-0.0437322
-0.0380338
-0.0326834
-0.027707
-0.0231237
-0.267453
-0.266272
-0.265012
-0.263672
-0.262249
-0.260744
-0.259153
-0.257476
-0.255709
-0.253853
-0.251905
-0.24986
-0.247719
-0.245497
-0.243172
-0.240746
-0.238217
-0.235584
-0.232843
-0.229992
-0.227027
-0.223947
-0.220746
-0.217423
-0.213973
-0.210392
-0.206675
-0.202818
-0.198815
-0.194661
-0.19035
-0.185876
-0.181233
-0.176415
-0.171415
-0.16623
-0.160854
-0.155285
-0.149521
-0.143566
-0.137421
-0.131096
-0.124602
-0.117955
-0.111176
-0.104292
-0.0973337
-0.0903368
-0.0833419
-0.0763925
-0.069535
-0.0628172
-0.0562865
-0.0499889
-0.0439674
-0.0382604
-0.0329008
-0.0279147
-0.0233213
-0.267587
-0.266406
-0.265145
-0.263805
-0.262384
-0.260879
-0.25929
-0.257613
-0.255848
-0.253993
-0.252046
-0.250006
-0.247882
-0.245648
-0.243322
-0.240898
-0.238372
-0.235741
-0.233002
-0.230154
-0.227193
-0.224115
-0.220919
-0.217599
-0.214153
-0.210577
-0.206865
-0.203014
-0.199017
-0.194869
-0.190566
-0.186099
-0.181464
-0.176655
-0.171664
-0.166488
-0.161122
-0.155563
-0.14981
-0.143864
-0.137729
-0.131412
-0.124926
-0.118286
-0.111513
-0.104633
-0.0976782
-0.0906827
-0.0836875
-0.0767361
-0.069875
-0.0631518
-0.0566142
-0.0503083
-0.0442771
-0.0385594
-0.0331882
-0.0281897
-0.0235834
-0.267745
-0.266564
-0.265304
-0.263965
-0.262544
-0.261041
-0.259453
-0.257778
-0.256014
-0.254161
-0.252211
-0.250153
-0.248046
-0.245825
-0.243504
-0.241082
-0.238559
-0.235931
-0.233196
-0.230351
-0.227393
-0.22432
-0.221128
-0.217813
-0.214373
-0.210802
-0.207096
-0.203251
-0.199262
-0.195121
-0.190826
-0.186369
-0.181744
-0.176945
-0.171965
-0.166801
-0.161446
-0.155899
-0.150157
-0.144223
-0.1381
-0.131792
-0.125317
-0.118685
-0.11192
-0.105046
-0.0980953
-0.0911022
-0.0841073
-0.0771542
-0.0702894
-0.0635606
-0.0570154
-0.0507001
-0.044658
-0.038928
-0.0335432
-0.0285302
-0.0239086
-0.267922
-0.266741
-0.265482
-0.264145
-0.262726
-0.261225
-0.259639
-0.257966
-0.256205
-0.254353
-0.25241
-0.250399
-0.248256
-0.246032
-0.243713
-0.241295
-0.238775
-0.236151
-0.23342
-0.230579
-0.227626
-0.224557
-0.22137
-0.218061
-0.214626
-0.211062
-0.207363
-0.203525
-0.199545
-0.195413
-0.191127
-0.18668
-0.182066
-0.177279
-0.172311
-0.167159
-0.161818
-0.156287
-0.150554
-0.144635
-0.138524
-0.132231
-0.125767
-0.119146
-0.11239
-0.105523
-0.0985778
-0.0915882
-0.0845947
-0.0776407
-0.0707727
-0.0640383
-0.0574854
-0.0511603
-0.0451066
-0.039363
-0.0339633
-0.0289341
-0.0242953
-0.268112
-0.266932
-0.265675
-0.26434
-0.262924
-0.261426
-0.259843
-0.258173
-0.256414
-0.254561
-0.252606
-0.250597
-0.248477
-0.24626
-0.243946
-0.241532
-0.239016
-0.236397
-0.23367
-0.230834
-0.227886
-0.224823
-0.221641
-0.218338
-0.21491
-0.211352
-0.207661
-0.203832
-0.199861
-0.195737
-0.191463
-0.187027
-0.182425
-0.177652
-0.172694
-0.167558
-0.162231
-0.156713
-0.150999
-0.145094
-0.138998
-0.132718
-0.126267
-0.119659
-0.112914
-0.106056
-0.0991181
-0.0921336
-0.0851427
-0.078189
-0.0713187
-0.0645795
-0.0580193
-0.0516846
-0.0456189
-0.0398614
-0.0344459
-0.0293994
-0.0247419
-0.268308
-0.26713
-0.265876
-0.264543
-0.263131
-0.261637
-0.260058
-0.258392
-0.256636
-0.254785
-0.25288
-0.250841
-0.24872
-0.246507
-0.244197
-0.241788
-0.239278
-0.236663
-0.233942
-0.231111
-0.228169
-0.225112
-0.221936
-0.21864
-0.215219
-0.211669
-0.207986
-0.204166
-0.200208
-0.196086
-0.191827
-0.187403
-0.182813
-0.178053
-0.173112
-0.16799
-0.162679
-0.157176
-0.151479
-0.14559
-0.139511
-0.133247
-0.126811
-0.120217
-0.113484
-0.106638
-0.0997086
-0.0927309
-0.0857445
-0.0787926
-0.0719214
-0.0651787
-0.0586122
-0.0522684
-0.0461912
-0.0404199
-0.0349883
-0.0299238
-0.0252466
-0.268501
-0.267327
-0.266077
-0.264749
-0.263342
-0.261853
-0.260279
-0.258618
-0.256865
-0.255024
-0.253104
-0.251085
-0.248973
-0.246766
-0.244462
-0.242059
-0.239554
-0.236945
-0.23423
-0.231406
-0.22847
-0.225419
-0.222249
-0.218961
-0.215547
-0.212005
-0.208331
-0.20452
-0.200568
-0.196465
-0.192214
-0.187802
-0.183226
-0.178479
-0.173554
-0.168448
-0.163153
-0.157668
-0.151989
-0.146117
-0.140055
-0.133809
-0.12739
-0.120811
-0.114093
-0.10726
-0.100342
-0.0933733
-0.0863934
-0.0794453
-0.0725751
-0.0658305
-0.0592591
-0.0529076
-0.0468198
-0.0410351
-0.0355876
-0.0305049
-0.0258075
-0.268684
-0.267516
-0.266272
-0.26495
-0.263549
-0.262066
-0.260499
-0.258842
-0.257085
-0.255286
-0.253353
-0.251338
-0.249232
-0.247032
-0.244734
-0.242337
-0.239839
-0.237237
-0.234529
-0.231711
-0.228782
-0.225739
-0.222577
-0.219296
-0.215891
-0.212357
-0.208692
-0.204891
-0.200949
-0.196858
-0.192618
-0.188219
-0.183657
-0.178925
-0.174015
-0.168925
-0.163648
-0.158181
-0.15252
-0.146668
-0.140625
-0.134398
-0.127997
-0.121436
-0.114735
-0.107917
-0.101012
-0.0940542
-0.0870831
-0.0801412
-0.0732743
-0.0665298
-0.0599556
-0.053598
-0.0475009
-0.0417038
-0.0362411
-0.0311404
-0.0264225
-0.268849
-0.267688
-0.266452
-0.265138
-0.263745
-0.26227
-0.260711
-0.259061
-0.257336
-0.255511
-0.253594
-0.251589
-0.249491
-0.247298
-0.245008
-0.242619
-0.240128
-0.237534
-0.234833
-0.232023
-0.229102
-0.226066
-0.222913
-0.21964
-0.216243
-0.212718
-0.209063
-0.205271
-0.20134
-0.197261
-0.193033
-0.188647
-0.184099
-0.179382
-0.174489
-0.169416
-0.164157
-0.158708
-0.153067
-0.147234
-0.141212
-0.135005
-0.128625
-0.122083
-0.115401
-0.1086
-0.101711
-0.0947675
-0.0878078
-0.0808747
-0.0740137
-0.067272
-0.0606971
-0.0543355
-0.0482308
-0.0424228
-0.0369458
-0.0318277
-0.0270895
-0.268986
-0.267835
-0.266608
-0.265305
-0.263921
-0.262457
-0.260906
-0.25926
-0.25756
-0.255734
-0.253827
-0.251831
-0.249742
-0.247558
-0.245277
-0.242897
-0.240414
-0.237828
-0.235136
-0.232334
-0.229422
-0.226394
-0.22325
-0.219986
-0.216598
-0.213083
-0.209437
-0.205656
-0.201736
-0.197669
-0.193453
-0.189081
-0.184547
-0.179845
-0.174969
-0.169913
-0.164673
-0.159244
-0.153623
-0.147812
-0.141811
-0.135626
-0.129267
-0.122748
-0.116086
-0.109305
-0.102435
-0.0955077
-0.0885624
-0.081641
-0.0747888
-0.0680526
-0.0614797
-0.0551163
-0.0490062
-0.0431889
-0.0376989
-0.0325642
-0.027806
-0.267947
-0.266733
-0.265441
-0.26407
-0.262617
-0.261076
-0.259437
-0.257742
-0.255936
-0.254043
-0.252058
-0.249979
-0.247805
-0.245534
-0.243163
-0.240691
-0.238114
-0.235431
-0.232639
-0.229736
-0.226718
-0.223583
-0.220328
-0.21695
-0.213445
-0.20981
-0.206039
-0.20213
-0.198076
-0.193873
-0.189515
-0.184995
-0.180309
-0.17545
-0.170412
-0.165191
-0.159782
-0.154183
-0.148394
-0.142416
-0.136254
-0.129919
-0.123424
-0.116785
-0.110027
-0.103178
-0.0962699
-0.089342
-0.0824355
-0.0755951
-0.0688673
-0.0622993
-0.0559368
-0.0498235
-0.0439988
-0.0384972
-0.033347
-0.0285695
-0.268015
-0.266815
-0.265538
-0.264181
-0.262742
-0.261218
-0.259626
-0.257905
-0.256112
-0.254232
-0.252259
-0.250193
-0.248031
-0.245772
-0.243412
-0.24095
-0.238385
-0.235712
-0.23293
-0.230037
-0.227029
-0.223905
-0.22066
-0.217292
-0.213798
-0.210174
-0.206415
-0.202518
-0.198476
-0.194286
-0.189942
-0.185438
-0.180768
-0.175926
-0.170907
-0.165706
-0.160318
-0.154741
-0.148975
-0.143022
-0.136885
-0.130576
-0.124106
-0.117493
-0.11076
-0.103935
-0.0970497
-0.0901424
-0.0832539
-0.0764286
-0.0697125
-0.0631522
-0.0567933
-0.0506792
-0.0448492
-0.0393378
-0.0341732
-0.0293772
-0.268026
-0.266845
-0.265585
-0.264246
-0.262823
-0.261309
-0.259713
-0.258023
-0.25625
-0.254386
-0.252429
-0.250377
-0.248228
-0.245982
-0.243635
-0.241185
-0.238632
-0.235971
-0.233201
-0.230319
-0.227323
-0.224209
-0.220976
-0.217619
-0.214136
-0.210524
-0.206777
-0.202892
-0.198863
-0.194687
-0.190358
-0.18587
-0.181217
-0.176393
-0.171393
-0.166212
-0.160846
-0.155293
-0.149551
-0.143624
-0.137515
-0.131233
-0.124791
-0.118206
-0.111501
-0.104702
-0.0978431
-0.0909596
-0.0840925
-0.0772855
-0.0705843
-0.0640348
-0.0576824
-0.05157
-0.0457369
-0.0402173
-0.0350397
-0.030226
-0.267969
-0.266809
-0.265571
-0.264252
-0.262848
-0.261353
-0.259765
-0.258096
-0.256342
-0.254496
-0.252555
-0.25052
-0.248388
-0.246156
-0.243823
-0.241388
-0.238848
-0.2362
-0.233443
-0.230574
-0.22759
-0.224489
-0.221268
-0.217924
-0.214453
-0.210853
-0.207119
-0.203247
-0.199233
-0.195071
-0.190757
-0.186285
-0.18165
-0.176844
-0.171865
-0.166705
-0.161363
-0.155834
-0.150119
-0.144218
-0.138138
-0.131886
-0.125474
-0.11892
-0.112245
-0.105477
-0.0986466
-0.0917902
-0.0849478
-0.0781626
-0.0714794
-0.0649439
-0.0586007
-0.0524926
-0.0466584
-0.0411325
-0.0359432
-0.0311126
-0.267829
-0.266694
-0.265482
-0.264187
-0.262807
-0.261334
-0.259754
-0.258105
-0.256374
-0.25455
-0.25263
-0.250614
-0.2485
-0.246285
-0.243969
-0.241549
-0.239025
-0.236392
-0.233649
-0.230794
-0.227825
-0.224737
-0.22153
-0.218199
-0.214742
-0.211155
-0.207435
-0.203578
-0.199578
-0.195432
-0.191134
-0.18668
-0.182063
-0.177277
-0.172319
-0.167182
-0.161864
-0.156361
-0.150673
-0.144802
-0.138752
-0.132531
-0.126153
-0.119632
-0.112991
-0.106256
-0.0994572
-0.0926312
-0.0858168
-0.0790566
-0.0723946
-0.065876
-0.0595449
-0.0534435
-0.0476104
-0.0420799
-0.0368803
-0.0320339
-0.266486
-0.265303
-0.264038
-0.262685
-0.261235
-0.259647
-0.258034
-0.256335
-0.254538
-0.252642
-0.250649
-0.248555
-0.246361
-0.244063
-0.241661
-0.239154
-0.236538
-0.233812
-0.230973
-0.228019
-0.224947
-0.221755
-0.218439
-0.214997
-0.211425
-0.20772
-0.203878
-0.199895
-0.195765
-0.191485
-0.187049
-0.182451
-0.177687
-0.17275
-0.167638
-0.162345
-0.15687
-0.151211
-0.145371
-0.139354
-0.133168
-0.126824
-0.120339
-0.113735
-0.107035
-0.100272
-0.0934798
-0.0866968
-0.0799647
-0.0733271
-0.0668282
-0.0605118
-0.0544195
-0.0485897
-0.0430562
-0.0378476
-0.0329863
-0.266168
-0.26502
-0.263789
-0.26247
-0.261057
-0.25952
-0.25788
-0.256211
-0.254447
-0.252581
-0.250613
-0.248545
-0.246373
-0.244096
-0.241715
-0.239228
-0.236631
-0.233924
-0.231103
-0.228166
-0.225112
-0.221936
-0.218637
-0.215212
-0.211657
-0.207969
-0.204144
-0.200178
-0.196066
-0.191805
-0.187388
-0.182812
-0.17807
-0.173157
-0.16807
-0.162805
-0.157358
-0.151731
-0.145924
-0.139942
-0.133792
-0.127486
-0.12104
-0.114475
-0.107815
-0.10109
-0.0943339
-0.0875851
-0.0808842
-0.0742739
-0.0677976
-0.0614984
-0.0554175
-0.0495927
-0.044058
-0.0388417
-0.0339663
-0.265723
-0.264616
-0.263425
-0.262145
-0.260772
-0.259283
-0.257616
-0.255987
-0.254264
-0.252433
-0.250498
-0.248458
-0.246313
-0.24406
-0.241702
-0.239238
-0.236663
-0.233977
-0.231177
-0.22826
-0.225225
-0.222068
-0.218788
-0.215381
-0.211845
-0.208175
-0.204369
-0.200423
-0.196331
-0.19209
-0.187695
-0.183141
-0.178423
-0.173536
-0.168476
-0.16324
-0.157825
-0.152231
-0.146459
-0.140514
-0.134403
-0.128137
-0.121733
-0.115209
-0.108591
-0.101907
-0.0951913
-0.0884799
-0.081813
-0.0752326
-0.0687814
-0.0625018
-0.0564342
-0.0506164
-0.0450819
-0.039859
-0.0349705
-0.030433
-0.265136
-0.264076
-0.262931
-0.261696
-0.260364
-0.258917
-0.257309
-0.255659
-0.253975
-0.252189
-0.250291
-0.248286
-0.246172
-0.243947
-0.241615
-0.239177
-0.236627
-0.233965
-0.231188
-0.228294
-0.225281
-0.222146
-0.218887
-0.215501
-0.211986
-0.208337
-0.204552
-0.200626
-0.196557
-0.192338
-0.187967
-0.183437
-0.178745
-0.173886
-0.168855
-0.16365
-0.158268
-0.152709
-0.146975
-0.141069
-0.135
-0.128777
-0.122417
-0.115938
-0.109364
-0.102724
-0.0960506
-0.0893792
-0.0827489
-0.0762009
-0.0697771
-0.0635191
-0.0574669
-0.0516576
-0.0461246
-0.0408962
-0.0359954
-0.0314391
-0.263385
-0.262293
-0.26111
-0.25983
-0.258444
-0.256922
-0.255174
-0.253558
-0.251832
-0.249983
-0.24802
-0.245942
-0.243748
-0.241447
-0.239038
-0.236517
-0.233882
-0.231131
-0.228263
-0.225275
-0.222165
-0.21893
-0.215567
-0.212075
-0.20845
-0.204688
-0.200786
-0.196741
-0.192547
-0.188201
-0.183699
-0.179035
-0.174205
-0.169206
-0.164034
-0.158688
-0.153166
-0.147472
-0.141608
-0.135582
-0.129405
-0.123091
-0.116659
-0.110133
-0.103539
-0.0969106
-0.0902815
-0.0836902
-0.0771769
-0.0707825
-0.064548
-0.0585127
-0.0527133
-0.0471831
-0.0419503
-0.0370379
-0.0324634
-0.262531
-0.261501
-0.260377
-0.259155
-0.257826
-0.25637
-0.254788
-0.253039
-0.251354
-0.249564
-0.247652
-0.245617
-0.243459
-0.241192
-0.238817
-0.236328
-0.233724
-0.231003
-0.228164
-0.225204
-0.222121
-0.218913
-0.215578
-0.212112
-0.208512
-0.204777
-0.200901
-0.196882
-0.192716
-0.188398
-0.183925
-0.179291
-0.174494
-0.169528
-0.164392
-0.159084
-0.153603
-0.14795
-0.14213
-0.13615
-0.130021
-0.123756
-0.117374
-0.110897
-0.104353
-0.0977708
-0.0911862
-0.0846359
-0.0781591
-0.0717959
-0.0655864
-0.0595694
-0.0537813
-0.0482548
-0.0430183
-0.0380951
-0.0335028
-0.261508
-0.260547
-0.259491
-0.258333
-0.257068
-0.25568
-0.254135
-0.252365
-0.250739
-0.249019
-0.247172
-0.245191
-0.243073
-0.240846
-0.23851
-0.236057
-0.233487
-0.230801
-0.227994
-0.225066
-0.222014
-0.218837
-0.215531
-0.212094
-0.208524
-0.204817
-0.200971
-0.196981
-0.192845
-0.188558
-0.184117
-0.179516
-0.174753
-0.169824
-0.164726
-0.159458
-0.154019
-0.148411
-0.142637
-0.136706
-0.130626
-0.124412
-0.118082
-0.111657
-0.105163
-0.0986301
-0.0920918
-0.0855842
-0.0791454
-0.0728148
-0.0666317
-0.0606342
-0.0548582
-0.0493364
-0.0440971
-0.0391636
-0.034554
-0.259425
-0.258444
-0.257358
-0.256164
-0.254851
-0.253415
-0.251857
-0.25
-0.24834
-0.246575
-0.244659
-0.242589
-0.240406
-0.238112
-0.2357
-0.23317
-0.230521
-0.227752
-0.224859
-0.221842
-0.218698
-0.215425
-0.212021
-0.208483
-0.204808
-0.200994
-0.197037
-0.192934
-0.18868
-0.184273
-0.179708
-0.174982
-0.170092
-0.165034
-0.159808
-0.154413
-0.148852
-0.143127
-0.137246
-0.131218
-0.125057
-0.11878
-0.112408
-0.105966
-0.0994842
-0.0929937
-0.08653
-0.0801306
-0.0738337
-0.0676781
-0.0617012
-0.0559384
-0.0504222
-0.0451808
-0.0402377
-0.0356115
-0.258139
-0.257239
-0.256232
-0.255115
-0.253879
-0.252514
-0.250985
-0.249292
-0.247562
-0.245855
-0.244017
-0.242002
-0.23987
-0.237624
-0.235258
-0.232771
-0.230165
-0.227436
-0.224583
-0.221604
-0.218497
-0.215261
-0.211893
-0.20839
-0.204751
-0.200972
-0.197051
-0.192983
-0.188766
-0.184396
-0.179869
-0.175182
-0.170333
-0.165318
-0.160137
-0.154788
-0.149275
-0.143601
-0.137771
-0.131797
-0.125691
-0.119469
-0.113151
-0.106764
-0.100333
-0.0938916
-0.0874731
-0.081114
-0.074852
-0.0687248
-0.0627693
-0.0570206
-0.0515107
-0.046268
-0.0413161
-0.0366739
-0.256722
-0.25591
-0.254987
-0.253949
-0.252792
-0.251506
-0.250079
-0.248476
-0.246583
-0.244998
-0.243265
-0.241322
-0.239252
-0.237062
-0.234747
-0.23231
-0.22975
-0.227067
-0.224258
-0.221322
-0.218257
-0.215061
-0.211733
-0.20827
-0.20467
-0.20093
-0.197048
-0.193019
-0.188842
-0.184513
-0.180027
-0.175384
-0.170578
-0.165609
-0.160475
-0.155176
-0.149714
-0.144092
-0.138318
-0.132399
-0.126349
-0.120184
-0.113923
-0.10759
-0.101212
-0.0948204
-0.0884475
-0.0821292
-0.075902
-0.069803
-0.0638685
-0.0581332
-0.0526289
-0.0473839
-0.0424221
-0.0377627
-0.255121
-0.254411
-0.253585
-0.252644
-0.251581
-0.250394
-0.249074
-0.247612
-0.246003
-0.244137
-0.242441
-0.240566
-0.238561
-0.236432
-0.234173
-0.23179
-0.229283
-0.226651
-0.223891
-0.221003
-0.217986
-0.214836
-0.211554
-0.208136
-0.20458
-0.200884
-0.197045
-0.193061
-0.188928
-0.184643
-0.180204
-0.175607
-0.17085
-0.16593
-0.160847
-0.155601
-0.150193
-0.144627
-0.138909
-0.133049
-0.127057
-0.12095
-0.114747
-0.10847
-0.102146
-0.095804
-0.0894767
-0.0831986
-0.0770054
-0.0709335
-0.0650186
-0.059295
-0.0537943
-0.0485449
-0.043571
-0.0388921
-0.252482
-0.251762
-0.250921
-0.249958
-0.248869
-0.247648
-0.246284
-0.244703
-0.242846
-0.241293
-0.239501
-0.237585
-0.235532
-0.233341
-0.231021
-0.228575
-0.225999
-0.223295
-0.220459
-0.217493
-0.214393
-0.211158
-0.207787
-0.204277
-0.200626
-0.196832
-0.192891
-0.188803
-0.184563
-0.180168
-0.175617
-0.170906
-0.166034
-0.161
-0.155804
-0.150449
-0.144936
-0.139274
-0.13347
-0.127535
-0.121486
-0.11534
-0.10912
-0.102851
-0.0965624
-0.0902847
-0.084052
-0.0778992
-0.071862
-0.0659754
-0.0602732
-0.0547867
-0.0495441
-0.0445697
-0.0398832
)
;

boundaryField
{
    inlet
    {
        type            zeroGradient;
    }
    outlet
    {
        type            fixedValue;
        value           nonuniform 0();
    }
    cylinder
    {
        type            zeroGradient;
    }
    top
    {
        type            symmetryPlane;
    }
    bottom
    {
        type            symmetryPlane;
    }
    defaultFaces
    {
        type            empty;
    }
    procBoundary6to2
    {
        type            processor;
        value           nonuniform List<scalar> 
57
(
-0.235826
-0.235627
-0.235287
-0.234805
-0.234181
-0.233412
-0.232499
-0.231445
-0.230254
-0.228931
-0.227486
-0.22592
-0.224219
-0.222381
-0.220407
-0.218296
-0.216049
-0.213665
-0.211143
-0.208484
-0.205685
-0.202747
-0.199669
-0.196448
-0.193085
-0.189578
-0.185926
-0.182127
-0.17818
-0.174084
-0.169839
-0.165443
-0.160897
-0.156202
-0.15136
-0.146375
-0.141251
-0.141251
-0.135095
-0.12982
-0.124436
-0.118958
-0.113402
-0.107786
-0.10213
-0.0964582
-0.0907951
-0.0851673
-0.0796019
-0.0741269
-0.0687698
-0.0635572
-0.0585143
-0.0536641
-0.0490269
-0.0446198
-0.0404568
)
;
    }
    procBoundary6to3
    {
        type            processor;
        value           uniform -0.0356648;
    }
    procBoundary6to5
    {
        type            processor;
        value           nonuniform List<scalar> 
40
(
-0.251023
-0.247649
-0.243886
-0.239958
-0.269362
-0.269399
-0.269473
-0.268556
-0.268556
-0.26869
-0.268849
-0.269027
-0.269216
-0.269409
-0.269599
-0.269778
-0.269935
-0.270063
-0.269086
-0.269086
-0.269139
-0.269132
-0.269053
-0.268888
-0.267591
-0.267591
-0.267238
-0.266752
-0.266115
-0.264389
-0.264389
-0.263472
-0.262376
-0.260307
-0.260307
-0.258936
-0.257426
-0.25572
-0.253084
-0.253084
)
;
    }
    procBoundary6to7
    {
        type            processor;
        value           nonuniform List<scalar> 
36
(
-0.0321919
-0.0354996
-0.0330742
-0.0339269
-0.0347895
-0.0187576
-0.0188197
-0.0189446
-0.0191319
-0.0193808
-0.0196901
-0.0200588
-0.0204857
-0.0209693
-0.0215082
-0.0221007
-0.0227448
-0.0234384
-0.0241791
-0.0249642
-0.0257909
-0.026656
-0.0275562
-0.0284881
-0.0294482
-0.0294482
-0.0262564
-0.0272378
-0.0282376
-0.029253
-0.0302805
-0.0313148
-0.0323546
-0.0334195
-0.0345228
-0.0354996
)
;
    }
    procBoundary6to9
    {
        type            processor;
        value           uniform -0.269361;
    }
    procBoundary6to10
    {
        type            processor;
        value           nonuniform List<scalar> 
61
(
-0.268376
-0.267275
-0.266095
-0.26346
-0.264836
-0.26346
-0.262037
-0.260531
-0.258939
-0.25726
-0.255493
-0.253635
-0.251686
-0.249643
-0.247504
-0.245267
-0.24294
-0.240511
-0.23798
-0.235343
-0.232599
-0.229743
-0.226774
-0.223689
-0.220483
-0.217153
-0.213696
-0.210108
-0.206382
-0.202516
-0.198503
-0.194337
-0.190015
-0.185527
-0.180871
-0.176038
-0.171023
-0.165822
-0.16043
-0.154845
-0.149065
-0.143094
-0.136935
-0.130596
-0.12409
-0.117433
-0.110646
-0.103756
-0.0967946
-0.0897971
-0.0828043
-0.0758598
-0.0690099
-0.0623022
-0.055784
-0.049501
-0.0434958
-0.0378067
-0.0324662
-0.0275
-0.0229271
)
;
    }
}


// ************************************************************************* //
