/*--------------------------------*- C++ -*----------------------------------*\
  =========                 |
  \\      /  F ield         | OpenFOAM: The Open Source CFD Toolbox
   \\    /   O peration     | Website:  https://openfoam.org
    \\  /    A nd           | Version:  7
     \\/     M anipulation  |
\*---------------------------------------------------------------------------*/
FoamFile
{
    version     2.0;
    format      ascii;
    class       volVectorField;
    location    "95";
    object      U;
}
// * * * * * * * * * * * * * * * * * * * * * * * * * * * * * * * * * * * * * //

dimensions      [0 1 -1 0 0 0 0];

internalField   nonuniform List<vector> 
1987
(
(1.14574 0.269025 -4.3971e-21)
(1.1398 0.255847 -2.88554e-20)
(1.15954 0.316901 1.03029e-20)
(1.15137 0.301604 -5.04098e-20)
(1.14411 0.286889 -7.10013e-20)
(1.13769 0.27275 6.44424e-20)
(1.13206 0.259176 -2.45986e-20)
(1.17962 0.373344 1.22655e-19)
(1.16872 0.355566 1.6336e-20)
(1.15891 0.338407 3.45643e-20)
(1.15015 0.321907 7.48535e-20)
(1.14236 0.30606 -9.01671e-20)
(1.13546 0.290856 2.20818e-20)
(1.12939 0.276279 5.71289e-20)
(1.1241 0.262315 -2.89271e-20)
(1.19212 0.418768 -7.6119e-20)
(1.18009 0.399356 5.74967e-20)
(1.1686 0.380189 -2.89122e-20)
(1.15813 0.361626 -1.97554e-20)
(1.14875 0.343781 -7.51939e-20)
(1.14041 0.326673 1.82929e-20)
(1.13303 0.310287 6.05483e-20)
(1.12653 0.2946 5.12768e-20)
(1.12084 0.279595 -4.21547e-20)
(1.11592 0.265249 -1.50803e-22)
(1.19936 0.465492 -2.26049e-19)
(1.19119 0.447438 -1.66123e-19)
(1.1799 0.427297 1.20281e-19)
(1.16815 0.406797 -1.03298e-19)
(1.1571 0.386732 9.06804e-20)
(1.1471 0.367401 -3.5924e-21)
(1.13821 0.348883 2.81219e-21)
(1.13034 0.331178 3.53149e-21)
(1.12341 0.314263 -1.93725e-20)
(1.11734 0.298106 -6.28608e-20)
(1.11206 0.282681 1.53844e-20)
(1.10753 0.267964 -1.67991e-20)
(1.17415 0.497109 -5.24649e-20)
(1.18814 0.491725 1.94426e-19)
(1.1868 0.47668 1.93712e-19)
(1.17817 0.456897 1.20436e-19)
(1.16699 0.435432 -9.87835e-20)
(1.15565 0.413881 -6.03401e-20)
(1.14511 0.392943 -6.42155e-21)
(1.13566 0.372862 -1.39543e-19)
(1.1273 0.353685 -6.54385e-20)
(1.11994 0.335398 6.64378e-20)
(1.1135 0.317967 2.45815e-20)
(1.10789 0.301352 5.13071e-20)
(1.10305 0.285521 -5.3321e-20)
(1.09893 0.270445 5.6617e-20)
(1.09547 0.256107 -2.24159e-20)
(1.12716 0.504748 -7.29717e-20)
(1.16404 0.512608 8.54037e-20)
(1.17565 0.504517 -6.13024e-20)
(1.1732 0.487306 -1.83838e-20)
(1.16434 0.46587 -1.08872e-19)
(1.15343 0.443135 1.91598e-19)
(1.1426 0.420572 1.16073e-19)
(1.13265 0.398789 1.11527e-19)
(1.1238 0.377978 -4.83444e-20)
(1.11602 0.358163 7.64857e-20)
(1.10922 0.339311 -8.06811e-20)
(1.10331 0.321379 -6.35376e-20)
(1.09819 0.304322 4.84874e-20)
(1.09381 0.288099 3.82934e-21)
(1.09013 0.272678 -2.25465e-20)
(1.08709 0.258035 2.77339e-20)
(0.925028 0.434195 -2.42483e-19)
(1.04778 0.493823 2.25358e-19)
(1.11886 0.522488 2.42019e-20)
(1.15228 0.52734 -2.69845e-20)
(1.16187 0.516618 -3.44536e-19)
(1.15862 0.49733 6.84362e-20)
(1.14974 0.474318 2.89445e-20)
(1.13925 0.450372 -9.6041e-21)
(1.12903 0.426836 -6.07039e-20)
(1.11975 0.404239 3.34117e-20)
(1.11155 0.382723 5.3029e-20)
(1.1044 0.362289 -1.50565e-20)
(1.0982 0.342892 2.40302e-20)
(1.09284 0.324479 2.71167e-20)
(1.08825 0.306997 -4.49739e-20)
(1.08436 0.290399 -9.7365e-21)
(1.08114 0.274648 5.95973e-21)
(1.07854 0.259715 -2.61859e-20)
(0.498628 0.233392 2.76798e-19)
(0.744555 0.361507 -1.62546e-19)
(0.924362 0.45575 2.80518e-19)
(1.04197 0.513585 -3.53121e-19)
(1.10861 0.539371 4.69441e-21)
(1.13895 0.541252 -4.30264e-20)
(1.14689 0.527985 1.7418e-19)
(1.1431 0.506714 1.1689e-20)
(1.13441 0.482204 -2.04009e-19)
(1.12448 0.457104 6.99625e-20)
(1.11495 0.43264 -7.28383e-20)
(1.1064 0.40926 -7.53865e-21)
(1.09892 0.387067 1.40358e-19)
(1.09244 0.366039 -1.06543e-19)
(1.08687 0.346119 5.65251e-21)
(1.08211 0.327246 -1.77463e-21)
(1.07807 0.309359 2.71558e-20)
(1.07471 0.292405 -8.31282e-22)
(1.07198 0.276342 -1.25271e-20)
(1.06983 0.261135 8.02259e-21)
(0.191861 0.0915413 2.07937e-19)
(0.502885 0.249754 3.23845e-20)
(0.746236 0.381995 1.01438e-20)
(0.921397 0.476588 -1.04591e-19)
(1.034 0.532459 1.21476e-20)
(1.09652 0.555326 1.60926e-19)
(1.12415 0.554289 8.59238e-20)
(1.13077 0.538572 1.12767e-19)
(1.12671 0.515415 3.3282e-20)
(1.11838 0.489488 1.50057e-19)
(1.10913 0.463297 -1.29503e-19)
(1.10039 0.437949 6.26903e-20)
(1.09264 0.413822 -6.80251e-21)
(1.08592 0.390982 -4.70717e-20)
(1.08016 0.369388 8.04969e-20)
(1.07526 0.348971 -1.25975e-20)
(1.07113 0.329661 1.31013e-20)
(1.06768 0.311391 1.01427e-20)
(1.06487 0.294102 -4.64831e-21)
(1.06264 0.277745 -3.08187e-21)
(1.06098 0.262282 -1.43587e-21)
(1.05985 0.247609 3.42926e-21)
(0.194344 0.0987105 -3.3288e-19)
(0.505576 0.265901 -3.20305e-19)
(0.745824 0.401934 7.23047e-22)
(0.916201 0.496597 1.76843e-20)
(1.02397 0.550354 -2.88834e-20)
(1.08268 0.570283 -9.99688e-20)
(1.10797 0.566398 -2.41509e-19)
(1.11359 0.548335 1.31065e-20)
(1.1095 0.523395 -4.30587e-21)
(1.10171 0.496134 -6.65561e-20)
(1.09324 0.468912 3.33316e-20)
(1.08537 0.442728 -1.25206e-19)
(1.07847 0.417894 -6.45697e-20)
(1.07256 0.394441 1.29476e-20)
(1.06757 0.37231 8.12151e-21)
(1.06339 0.351424 -3.7694e-20)
(1.05992 0.331704 -3.50829e-21)
(1.05709 0.313076 -8.34303e-21)
(1.05485 0.295474 4.26256e-21)
(1.05315 0.278846 -2.04876e-22)
(1.05198 0.263145 -1.11602e-20)
(1.05133 0.248264 5.76857e-21)
(0.196177 0.105842 2.36783e-19)
(0.506699 0.281728 1.6645e-19)
(0.743357 0.421204 -1.00539e-19)
(0.908853 0.515668 3.3536e-19)
(1.01196 0.567184 2.66728e-19)
(1.06721 0.584179 1.97753e-19)
(1.09051 0.577528 3.09723e-20)
(1.09543 0.557231 -1.28681e-19)
(1.09153 0.530612 -6.21553e-21)
(1.08442 0.502102 6.27338e-20)
(1.07685 0.473916 -5.83574e-20)
(1.06992 0.446946 9.71249e-20)
(1.06393 0.421446 7.03881e-20)
(1.05888 0.397416 4.07565e-21)
(1.05469 0.374784 2.41404e-21)
(1.05126 0.353459 -5.89366e-21)
(1.04849 0.333357 -1.31315e-20)
(1.04631 0.314397 -2.44945e-21)
(1.04466 0.296507 1.5213e-21)
(1.04352 0.27963 1.18778e-20)
(1.04286 0.263713 1.47968e-20)
(1.0427 0.248644 -1.53742e-20)
(0.19735 0.112887 1.69872e-19)
(0.506263 0.297132 -2.11232e-19)
(0.738886 0.439689 -8.64242e-20)
(0.89944 0.533697 -5.48544e-20)
(0.998106 0.582869 -3.16694e-20)
(1.05021 0.596953 -2.12814e-19)
(1.07184 0.587629 -3.67762e-20)
(1.07635 0.565217 1.43958e-19)
(1.07284 0.537028 -9.13136e-20)
(1.06655 0.507355 -3.39604e-20)
(1.05997 0.478272 -1.16118e-20)
(1.05405 0.450571 1.69438e-20)
(1.04903 0.42445 -9.51805e-20)
(1.04489 0.399884 -1.31278e-20)
(1.04155 0.376785 3.35207e-21)
(1.0389 0.355056 -6.67044e-21)
(1.03686 0.334603 5.30326e-22)
(1.03536 0.315339 -2.00348e-20)
(1.03433 0.297188 2.51189e-20)
(1.03376 0.280087 -3.02641e-20)
(1.03362 0.263975 3.59395e-20)
(1.03396 0.248739 5.01109e-20)
(1.03468 0.234373 -2.79224e-20)
(0.197858 0.119798 -1.92527e-19)
(0.504289 0.312012 1.64039e-19)
(0.73247 0.457276 1.29094e-19)
(0.88806 0.550585 -2.24351e-19)
(0.982503 0.597332 -7.15348e-20)
(1.03178 0.608545 2.96322e-19)
(1.05208 0.596658 5.2693e-20)
(1.05642 0.572251 3.25297e-20)
(1.0535 0.542604 -8.89612e-20)
(1.04816 0.511859 2.26616e-20)
(1.04266 0.481948 2.193e-20)
(1.03781 0.453572 3.96202e-20)
(1.0338 0.426878 9.65534e-21)
(1.03062 0.401819 -2.1481e-21)
(1.02816 0.378293 -9.63807e-21)
(1.02633 0.356194 -3.78485e-22)
(1.02505 0.335423 -5.37044e-22)
(1.02425 0.315887 1.52187e-21)
(1.02387 0.297503 -1.82667e-20)
(1.02388 0.280203 2.32095e-20)
(1.02429 0.263922 -3.76011e-20)
(1.02514 0.248541 3.82394e-20)
(1.02635 0.234071 -1.81024e-20)
(0.197703 0.126528 -1.54647e-19)
(0.500803 0.326271 2.91492e-20)
(0.724183 0.473859 1.86643e-19)
(0.87482 0.566241 2.71464e-19)
(0.965253 0.6105 -2.98245e-19)
(1.01202 0.618902 -2.29448e-19)
(1.0313 0.604567 -2.69847e-20)
(1.03573 0.578296 -7.48325e-20)
(1.03356 0.547304 3.03757e-20)
(1.02928 0.515578 -5.98648e-20)
(1.02493 0.484911 -2.66457e-20)
(1.02121 0.455919 -2.54652e-20)
(1.01828 0.428704 1.06176e-20)
(1.01608 0.403197 5.26395e-21)
(1.01454 0.379286 1.58512e-20)
(1.01356 0.356856 1.18647e-20)
(1.01307 0.335802 1.37509e-21)
(1.013 0.316025 3.10041e-21)
(1.01329 0.297439 -1.22121e-20)
(1.01392 0.279969 2.45587e-20)
(1.01488 0.263543 4.32983e-20)
(1.01624 0.248043 -2.45436e-20)
(1.01794 0.23349 -3.7159e-20)
(0.196887 0.133034 1.85671e-20)
(0.495847 0.339814 6.96559e-20)
(0.714114 0.489336 -6.81026e-20)
(0.859823 0.580587 -4.84574e-20)
(0.946456 0.6223 5.09131e-20)
(0.991045 0.627969 8.06995e-20)
(1.00959 0.611315 9.53191e-21)
(1.01433 0.583315 6.78796e-20)
(1.01306 0.551094 5.84539e-20)
(1.00996 0.51848 5.42753e-20)
(1.00683 0.487132 1.84053e-20)
(1.0043 0.457586 1.56531e-20)
(1.00248 0.429904 -9.15374e-21)
(1.00131 0.403998 1.34928e-20)
(1.00073 0.379745 -9.2075e-21)
(1.00063 0.357024 -2.95477e-20)
(1.00095 0.335724 4.62078e-21)
(1.00163 0.315741 -2.13962e-20)
(1.00262 0.296984 8.47372e-20)
(1.00387 0.279372 -5.07412e-20)
(1.0054 0.26283 -4.09113e-20)
(1.00729 0.247237 -1.19114e-19)
(1.00948 0.232623 1.28031e-19)
(1.01136 0.219587 -2.98445e-20)
(0.195421 0.13927 6.5719e-20)
(0.489471 0.35255 -7.42749e-20)
(0.702358 0.503616 -1.31161e-19)
(0.843147 0.593532 -3.07341e-19)
(0.926251 0.632686 3.27805e-20)
(0.968974 0.635695 -7.0303e-21)
(0.987054 0.616863 9.5934e-20)
(0.992298 0.587272 -1.71041e-20)
(0.992082 0.553941 2.58325e-20)
(0.990242 0.520533 1.28174e-20)
(0.988408 0.488582 -2.4113e-21)
(0.987111 0.458546 8.52448e-21)
(0.986438 0.430454 -1.02773e-21)
(0.98634 0.4042 -3.57327e-21)
(0.986736 0.379652 -2.0095e-20)
(0.98755 0.356683 -1.77513e-20)
(0.988713 0.335175 1.82074e-20)
(0.990166 0.315022 6.4713e-20)
(0.991862 0.296126 -1.08399e-20)
(0.993767 0.278404 2.66536e-20)
(0.995888 0.261773 -2.08227e-20)
(0.998305 0.246116 1.44054e-19)
(1.00097 0.231465 -1.33053e-19)
(1.00336 0.218402 2.52369e-20)
(0.193318 0.145194 5.34198e-20)
(0.481734 0.364387 -4.84435e-20)
(0.688981 0.516611 -5.74518e-20)
(0.824914 0.605005 5.72616e-20)
(0.904774 0.641594 -1.07091e-19)
(0.945906 0.642046 -9.53659e-20)
(0.963768 0.621177 -4.16457e-20)
(0.969709 0.590136 2.60684e-20)
(0.970668 0.555815 -1.24713e-20)
(0.970175 0.52171 6.25245e-21)
(0.969691 0.489234 -8.38166e-21)
(0.969675 0.458777 3.70129e-20)
(0.970191 0.430334 1.53694e-20)
(0.971191 0.403785 2.46819e-20)
(0.9726 0.37899 8.28457e-20)
(0.974348 0.355817 2.05263e-20)
(0.976373 0.334143 1.10459e-19)
(0.978622 0.313856 2.74916e-20)
(0.981049 0.294856 3.18282e-20)
(0.983622 0.277054 -5.46628e-20)
(0.986349 0.260363 1.23402e-19)
(0.989301 0.244672 9.50432e-21)
(0.992437 0.230007 3.05146e-20)
(0.995322 0.216918 -4.26135e-20)
(0.19059 0.15076 4.81354e-20)
(0.472706 0.37526 -1.40647e-19)
(0.674065 0.528216 2.6348e-19)
(0.805277 0.614947 2.36298e-19)
(0.882132 0.648971 1.49331e-19)
(0.921946 0.646982 -6.73689e-20)
(0.939824 0.624225 3.55598e-20)
(0.946632 0.591878 -2.29188e-20)
(0.948879 0.556687 -6.81005e-21)
(0.949808 0.521984 6.22617e-21)
(0.950727 0.489064 -6.99993e-21)
(0.952031 0.458255 -6.56878e-20)
(0.953771 0.429523 1.36327e-20)
(0.955897 0.402736 -4.51183e-20)
(0.958344 0.377745 -4.05e-20)
(0.961049 0.354414 -5.28405e-20)
(0.963957 0.332615 -8.74429e-20)
(0.967019 0.312232 -1.95004e-19)
(0.970195 0.293163 -1.41505e-19)
(0.973454 0.275313 -1.12282e-19)
(0.976806 0.258593 -7.05915e-20)
(0.980304 0.242901 -1.91403e-20)
(0.983895 0.228244 9.72221e-20)
(0.987263 0.215114 -8.40362e-20)
(0.991259 0.202737 -6.16371e-20)
(0.187249 0.155903 2.42339e-20)
(0.46246 0.385103 1.64413e-19)
(0.657744 0.538384 -2.51217e-19)
(0.784359 0.623287 -1.45597e-19)
(0.858442 0.654776 -9.79735e-20)
(0.897199 0.65047 4.24454e-21)
(0.915311 0.625978 -2.52884e-20)
(0.923139 0.592471 6.21859e-21)
(0.926775 0.556533 -1.82671e-20)
(0.929191 0.521332 -1.11588e-20)
(0.931559 0.488051 -3.49872e-20)
(0.934219 0.456962 2.50252e-20)
(0.937211 0.428006 5.13963e-20)
(0.940491 0.401037 3.07465e-20)
(0.943998 0.375903 -7.00944e-20)
(0.94768 0.352462 1.22826e-19)
(0.951488 0.330581 -6.45979e-20)
(0.95538 0.310142 3.75123e-20)
(0.95932 0.291039 1.12753e-19)
(0.963283 0.273173 9.6474e-20)
(0.967279 0.256455 -4.33194e-20)
(0.971334 0.240796 5.43458e-20)
(0.975366 0.226176 7.97605e-21)
(0.979204 0.212984 1.29573e-19)
(0.983947 0.20077 -1.85463e-19)
(0.183324 0.160558 -5.83077e-21)
(0.451075 0.393814 -7.77719e-21)
(0.640141 0.547056 1.32477e-19)
(0.762275 0.629979 -7.80207e-20)
(0.833824 0.658971 1.07658e-19)
(0.871772 0.65248 1.01119e-20)
(0.890316 0.626413 8.54552e-21)
(0.899302 0.591892 -6.85178e-21)
(0.904417 0.55533 6.97971e-21)
(0.908377 0.519732 -2.17886e-20)
(0.912233 0.486176 7.85729e-20)
(0.91628 0.454881 2.35366e-20)
(0.92055 0.425766 -4.66575e-20)
(0.925005 0.398676 -7.73589e-20)
(0.929593 0.373453 2.39088e-20)
(0.934268 0.34995 -1.54871e-20)
(0.938991 0.328031 -1.19294e-19)
(0.943727 0.307577 2.55484e-19)
(0.948443 0.288475 5.38573e-20)
(0.953126 0.270626 5.84599e-21)
(0.957785 0.25394 -1.41062e-19)
(0.962406 0.23835 -9.84659e-20)
(0.966877 0.223797 -2.80267e-20)
(0.971244 0.210541 -2.40306e-20)
(0.976883 0.198556 2.36697e-19)
(0.178885 0.164705 -1.65652e-20)
(0.438627 0.401314 -4.92742e-20)
(0.621357 0.554165 -5.44445e-20)
(0.739149 0.634978 9.74337e-20)
(0.808399 0.661524 8.52573e-21)
(0.84577 0.652988 -5.76271e-21)
(0.864928 0.625507 1.9106e-20)
(0.875196 0.590121 7.34474e-21)
(0.881864 0.55306 -5.57462e-20)
(0.887418 0.517166 -6.97819e-20)
(0.892795 0.483422 -7.65873e-20)
(0.898255 0.451997 -4.64321e-21)
(0.903826 0.422791 3.35084e-20)
(0.909473 0.395641 -8.08155e-20)
(0.915158 0.370384 -1.61977e-20)
(0.920841 0.346869 -1.08461e-19)
(0.926492 0.324959 2.36868e-19)
(0.932081 0.30453 1.04795e-19)
(0.937584 0.285467 3.38629e-20)
(0.942999 0.267664 -5.63332e-20)
(0.948332 0.251038 -4.58382e-21)
(0.953521 0.235541 5.56449e-20)
(0.95847 0.22107 4.16438e-21)
(0.963564 0.207745 1.53697e-19)
(0.970324 0.196186 1.37488e-19)
(0.173968 0.168345 -5.18098e-20)
(0.425189 0.40756 7.71808e-20)
(0.60151 0.559649 5.17233e-20)
(0.715107 0.638244 -2.43566e-20)
(0.782287 0.662407 1.21813e-20)
(0.819298 0.651974 -3.59195e-21)
(0.839235 0.623243 3.99539e-20)
(0.850892 0.587142 2.07388e-20)
(0.859181 0.549705 4.94948e-20)
(0.866368 0.51362 1.52892e-19)
(0.873294 0.479775 1.37388e-19)
(0.880188 0.448297 7.27337e-20)
(0.887075 0.41907 1.73244e-20)
(0.893932 0.391922 1.11563e-20)
(0.900725 0.366688 8.09752e-20)
(0.907427 0.343214 6.32567e-20)
(0.914015 0.321359 -5.36381e-20)
(0.920465 0.300996 -3.74617e-19)
(0.926764 0.282009 2.55973e-20)
(0.932917 0.264286 5.70154e-20)
(0.938923 0.247747 6.48684e-20)
(0.944676 0.232354 8.73552e-20)
(0.950185 0.217931 1.13007e-20)
(0.956265 0.204386 -4.62438e-19)
(0.963959 0.193446 8.27732e-20)
(0.168585 0.17144 -2.08033e-20)
(0.410858 0.412516 -3.0312e-20)
(0.580727 0.563465 -4.83971e-20)
(0.690281 0.639746 1.30655e-20)
(0.755609 0.6616 -2.99054e-20)
(0.792461 0.649423 -3.65287e-20)
(0.813324 0.619609 -4.00353e-20)
(0.826464 0.582941 -3.44248e-20)
(0.836428 0.545254 -9.77874e-20)
(0.845281 0.509082 2.06485e-20)
(0.853777 0.475224 -1.3215e-19)
(0.862121 0.443773 -9.68144e-20)
(0.87034 0.414594 1.28749e-20)
(0.878416 0.387513 -7.15381e-20)
(0.886328 0.36236 8.50761e-20)
(0.894057 0.338979 -3.71367e-20)
(0.901587 0.317226 -9.81167e-21)
(0.908904 0.296973 2.30097e-19)
(0.916003 0.2781 -1.86904e-19)
(0.922896 0.260493 6.68995e-20)
(0.929564 0.244072 1.39323e-19)
(0.935885 0.228806 -8.86783e-20)
(0.942048 0.214425 2.40829e-19)
(0.949214 0.200369 2.88913e-19)
(0.956535 0.188309 4.47241e-20)
(0.162771 0.173959 -2.38856e-20)
(0.395732 0.41614 1.94191e-20)
(0.559129 0.565577 -3.12649e-21)
(0.664798 0.639459 1.92035e-20)
(0.728485 0.659089 2.1737e-20)
(0.765363 0.645324 4.87517e-20)
(0.787283 0.614595 9.56935e-21)
(0.801985 0.57751 -2.49202e-20)
(0.81367 0.539697 6.88635e-20)
(0.824214 0.503541 1.24589e-19)
(0.834296 0.469762 1.03752e-19)
(0.844101 0.438416 -5.589e-21)
(0.853658 0.409358 4.79702e-20)
(0.862961 0.382409 7.27852e-20)
(0.871998 0.357396 -1.13398e-20)
(0.880758 0.33416 -3.65196e-20)
(0.889235 0.312558 8.3918e-20)
(0.897422 0.292459 1.27642e-19)
(0.905322 0.27374 2.16879e-19)
(0.912952 0.256285 -2.3081e-19)
(0.920278 0.240019 -1.46143e-19)
(0.927194 0.224912 2.73753e-20)
(0.934042 0.210681 2.63222e-20)
(0.941875 0.196759 -1.34183e-19)
(0.948493 0.184779 -1.27774e-19)
(0.156566 0.175875 -3.87823e-21)
(0.37991 0.418396 -3.57105e-20)
(0.536842 0.565957 -4.47747e-20)
(0.638788 0.637365 -7.33836e-20)
(0.701033 0.654864 1.83471e-20)
(0.738107 0.639673 1.73575e-20)
(0.761199 0.608197 1.88676e-20)
(0.77753 0.570843 -1.09643e-19)
(0.790969 0.533029 2.05203e-19)
(0.803221 0.496993 -1.35806e-19)
(0.814898 0.463383 -3.30533e-19)
(0.826171 0.432223 5.45249e-20)
(0.837073 0.403359 -2.94655e-19)
(0.847606 0.376606 1.74635e-20)
(0.857769 0.351792 1.58362e-19)
(0.867562 0.328757 1.74018e-19)
(0.876986 0.307354 -5.39623e-19)
(0.886043 0.287453 -1.11452e-20)
(0.894744 0.268928 -3.85434e-19)
(0.903106 0.251663 1.28549e-20)
(0.911091 0.235583 4.90944e-20)
(0.918629 0.220645 -2.30809e-19)
(0.926133 0.206536 -1.43192e-19)
(0.934397 0.192668 -2.25416e-20)
(0.940768 0.18061 -2.6004e-19)
(0.150015 0.177166 -6.20011e-21)
(0.363491 0.419254 9.64868e-20)
(0.513991 0.564583 7.32648e-20)
(0.612379 0.633456 4.82302e-20)
(0.673372 0.648923 -1.71632e-19)
(0.710794 0.632469 2.69825e-20)
(0.735157 0.600414 1.90105e-20)
(0.753171 0.562938 1.51435e-20)
(0.768389 0.525246 -1.61953e-19)
(0.78236 0.489436 -2.7064e-19)
(0.795636 0.456086 1.31806e-19)
(0.808377 0.425193 -1.79365e-19)
(0.820623 0.396594 2.17162e-19)
(0.832386 0.370105 1.60982e-19)
(0.843675 0.34555 -1.47454e-19)
(0.8545 0.322769 -4.62366e-21)
(0.864869 0.301615 4.04232e-19)
(0.874793 0.281956 -3.04901e-20)
(0.88429 0.263667 7.93598e-20)
(0.893379 0.24663 4.42598e-20)
(0.902024 0.230771 5.73943e-21)
(0.910188 0.216039 1.05619e-19)
(0.9183 0.202109 1.19703e-19)
(0.926936 0.188442 -1.94341e-19)
(0.93337 0.176579 7.04893e-20)
(0.143163 0.177814 1.71215e-21)
(0.346575 0.41869 4.23395e-20)
(0.490702 0.561444 6.31972e-20)
(0.585699 0.627728 2.94548e-20)
(0.645618 0.641269 1.21807e-19)
(0.683524 0.623718 6.58143e-20)
(0.709242 0.591251 9.9482e-20)
(0.728981 0.553799 -5.80255e-21)
(0.745994 0.516351 1.64818e-19)
(0.761686 0.48087 -1.4616e-19)
(0.77656 0.44787 4.08551e-19)
(0.790766 0.417325 7.00907e-20)
(0.804352 0.389066 -1.99388e-19)
(0.81734 0.362906 -2.44319e-19)
(0.82975 0.33867 1.16804e-19)
(0.841601 0.316198 -1.54423e-19)
(0.85291 0.295343 -2.93841e-19)
(0.863696 0.275972 2.05456e-19)
(0.873983 0.257959 4.04901e-20)
(0.883794 0.241188 1.99604e-19)
(0.893097 0.225585 -6.7217e-20)
(0.901881 0.211087 -5.64815e-20)
(0.910561 0.197368 3.06612e-19)
(0.919564 0.183951 2.21988e-19)
(0.926234 0.172351 -2.23831e-21)
(0.136057 0.177806 -5.0797e-20)
(0.329266 0.416689 -1.16535e-19)
(0.467099 0.556533 -7.73331e-20)
(0.558873 0.620184 -9.2758e-21)
(0.617884 0.63191 -3.23878e-20)
(0.656397 0.613427 -1.13145e-19)
(0.68354 0.580715 -6.26528e-20)
(0.705033 0.543432 -6.6957e-20)
(0.723847 0.506348 -8.31102e-20)
(0.741257 0.4713 2.22684e-19)
(0.75772 0.438741 -2.02985e-19)
(0.773382 0.408625 1.6043e-19)
(0.788299 0.380778 3.55158e-19)
(0.802505 0.355014 1.58387e-19)
(0.816028 0.331157 -2.34237e-19)
(0.828897 0.309048 9.65324e-20)
(0.841138 0.288541 7.26654e-20)
(0.852778 0.269503 2.11033e-20)
(0.863848 0.251809 3.31179e-19)
(0.874372 0.235343 -2.37883e-19)
(0.884328 0.220031 -1.90493e-19)
(0.893723 0.2058 -4.65805e-20)
(0.90295 0.192336 -1.99361e-19)
(0.912337 0.179225 -2.01333e-19)
(0.919335 0.167912 3.67577e-19)
(0.128744 0.177129 4.63679e-20)
(0.311666 0.413241 -9.49237e-21)
(0.443308 0.549852 -1.11415e-19)
(0.532027 0.610835 -1.92383e-19)
(0.590285 0.620861 -1.569e-19)
(0.62951 0.601614 2.31064e-19)
(0.658132 0.568818 1.80784e-19)
(0.681398 0.531846 1.66393e-19)
(0.702011 0.495247 3.61255e-20)
(0.721128 0.460733 1.66444e-19)
(0.739167 0.428704 -1.44937e-19)
(0.756272 0.399098 -2.87326e-19)
(0.772508 0.371737 -4.24786e-19)
(0.787918 0.346434 -2.87043e-19)
(0.802542 0.323017 3.26927e-19)
(0.816418 0.301325 -2.1761e-19)
(0.829581 0.281216 -1.67983e-19)
(0.842065 0.262556 1.19385e-19)
(0.853906 0.245221 8.08744e-20)
(0.865136 0.229099 -5.39216e-20)
(0.875737 0.214111 5.43505e-20)
(0.885732 0.200183 1.16008e-19)
(0.895491 0.187013 1.28767e-20)
(0.905277 0.174245 -8.75372e-20)
(0.912657 0.163233 -4.23031e-19)
(0.121273 0.175777 -1.55763e-19)
(0.293878 0.408345 4.46343e-20)
(0.419452 0.54141 -7.32893e-20)
(0.505282 0.5997 5.23765e-20)
(0.562929 0.608143 2.26523e-19)
(0.602957 0.588296 -2.38817e-19)
(0.6331 0.555579 -6.35329e-20)
(0.658146 0.519056 -4.40442e-19)
(0.680549 0.483059 -7.07212e-20)
(0.701355 0.44918 3.35445e-19)
(0.720951 0.417771 -1.86223e-19)
(0.739481 0.388754 3.03313e-19)
(0.757018 0.361951 3.66706e-19)
(0.773616 0.337175 7.84874e-20)
(0.789326 0.314256 2.19544e-19)
(0.804195 0.293037 -1.72362e-21)
(0.818266 0.273374 3.07533e-19)
(0.831581 0.255137 -2.39827e-19)
(0.844183 0.238203 -3.77718e-19)
(0.856106 0.222461 -1.70437e-19)
(0.867343 0.207834 -5.85267e-20)
(0.877925 0.19424 2.70976e-20)
(0.888208 0.1814 1.51387e-19)
(0.898401 0.169007 1.54987e-19)
(0.906195 0.158305 3.85501e-19)
(0.113693 0.173746 3.76486e-20)
(0.276004 0.402005 2.28803e-19)
(0.395652 0.531224 1.17438e-19)
(0.478758 0.5868 2.00987e-19)
(0.535925 0.593781 -1.7414e-19)
(0.576832 0.573498 -7.53724e-20)
(0.608525 0.541018 -1.79803e-19)
(0.635349 0.505081 1.26253e-19)
(0.659522 0.4698 -1.01285e-19)
(0.681994 0.436655 -4.56876e-19)
(0.703123 0.405954 -6.17842e-20)
(0.723054 0.377606 -3.12103e-19)
(0.741871 0.351431 8.32248e-20)
(0.759637 0.327248 1.23163e-19)
(0.776415 0.304886 -2.63664e-19)
(0.792259 0.284191 -9.88705e-22)
(0.807222 0.265024 -1.72233e-19)
(0.821352 0.247254 -1.14847e-19)
(0.834699 0.230761 1.59245e-19)
(0.847304 0.215436 1.94978e-19)
(0.859165 0.201203 2.18921e-19)
(0.870323 0.187978 -1.95047e-19)
(0.881119 0.175501 -1.93174e-19)
(0.891723 0.163507 7.71137e-20)
(0.899952 0.153124 -3.19291e-19)
(0.106053 0.171037 1.54332e-19)
(0.258146 0.394234 -3.47101e-19)
(0.372027 0.519317 -1.83038e-19)
(0.452573 0.572167 1.4568e-19)
(0.509377 0.577806 4.77527e-20)
(0.551226 0.557249 3.0256e-19)
(0.584484 0.525161 -7.80875e-20)
(0.613073 0.489941 -6.81178e-20)
(0.638991 0.45549 3.65715e-21)
(0.663098 0.423177 1.08945e-19)
(0.68573 0.393269 4.81441e-19)
(0.707036 0.365667 -2.01687e-19)
(0.727106 0.340191 7.43264e-21)
(0.746017 0.316663 2.96061e-19)
(0.76384 0.294917 -5.15691e-19)
(0.780639 0.2748 5.04122e-20)
(0.796474 0.256175 1.77433e-20)
(0.811402 0.238916 -1.61266e-19)
(0.825479 0.222904 2.35768e-19)
(0.83875 0.208033 -1.1599e-19)
(0.851222 0.194227 1.95808e-19)
(0.862943 0.181402 2.05169e-19)
(0.874241 0.169318 1.4953e-19)
(0.885254 0.157744 7.87224e-20)
(0.89393 0.147692 -1.04567e-19)
(0.0984006 0.167652 7.68665e-20)
(0.240404 0.38505 -9.75573e-21)
(0.348696 0.505719 -3.58408e-22)
(0.426839 0.555837 -6.24435e-20)
(0.483387 0.560256 1.43625e-19)
(0.526226 0.539583 -4.30773e-19)
(0.561054 0.508036 2.70509e-19)
(0.591385 0.473664 2.46394e-19)
(0.619015 0.440151 2.1876e-19)
(0.644721 0.408764 -2.57184e-19)
(0.668822 0.379734 -4.86331e-19)
(0.691469 0.352954 4.28885e-19)
(0.712763 0.328247 -4.08814e-19)
(0.732791 0.305437 2.56382e-21)
(0.751634 0.284363 1.12803e-20)
(0.769364 0.264875 -5.28879e-20)
(0.786051 0.24684 4.49358e-19)
(0.801757 0.230134 2.54276e-19)
(0.816544 0.214641 1.57206e-19)
(0.830464 0.20026 -1.60322e-20)
(0.843532 0.186914 -3.30991e-19)
(0.855803 0.174519 -6.39557e-20)
(0.86759 0.162856 -1.6468e-19)
(0.879006 0.151723 -3.30743e-19)
(0.888136 0.142014 -3.17604e-20)
(0.090785 0.163601 -1.85251e-19)
(0.222876 0.374476 7.12385e-20)
(0.32577 0.490468 1.48294e-19)
(0.401668 0.537852 -1.10113e-19)
(0.458055 0.541172 4.06613e-19)
(0.501919 0.520538 2.18326e-19)
(0.538309 0.489678 -6.18074e-20)
(0.570352 0.456279 6.17935e-20)
(0.599651 0.42381 -1.7065e-19)
(0.626916 0.393442 4.10129e-19)
(0.652446 0.365373 2.78146e-19)
(0.676397 0.339489 1.62214e-19)
(0.69888 0.315617 5.42662e-19)
(0.719995 0.293586 -3.98582e-19)
(0.739828 0.273239 1.58972e-19)
(0.758464 0.254431 -4.6822e-19)
(0.775977 0.237031 -2.72771e-19)
(0.792439 0.220919 -6.10587e-20)
(0.807917 0.205985 -4.99699e-19)
(0.822467 0.192127 4.36132e-19)
(0.836113 0.179272 -2.29583e-19)
(0.848918 0.167337 1.92102e-19)
(0.86118 0.156122 -4.02177e-20)
(0.87299 0.145447 2.17386e-19)
(0.882575 0.136095 -1.12107e-20)
(0.0832535 0.158892 -1.07066e-19)
(0.205657 0.362545 6.44757e-20)
(0.303362 0.473607 -2.20962e-19)
(0.377167 0.51826 1.67269e-19)
(0.433475 0.520601 -2.50775e-19)
(0.478387 0.500156 -1.41218e-19)
(0.51632 0.470124 -7.6724e-20)
(0.550035 0.437818 1.09513e-19)
(0.580958 0.406496 -3.5504e-19)
(0.609732 0.377237 -9.18752e-20)
(0.636646 0.350208 2.68114e-20)
(0.66186 0.325292 -7.53399e-19)
(0.685496 0.302321 3.44429e-19)
(0.707662 0.281129 -8.43995e-20)
(0.728455 0.261562 8.9422e-21)
(0.747966 0.243483 1.12039e-19)
(0.766279 0.226762 -3.0733e-20)
(0.783471 0.211286 3.08974e-20)
(0.799617 0.196946 1.99569e-19)
(0.814777 0.183646 -2.15288e-21)
(0.828983 0.171311 -2.6006e-21)
(0.842304 0.159864 4.89195e-21)
(0.855025 0.149122 4.16179e-19)
(0.867219 0.138923 -1.5596e-19)
(0.877255 0.129944 6.8327e-20)
(0.075853 0.153541 1.1505e-19)
(0.188841 0.349293 -1.62194e-19)
(0.281578 0.455186 3.06058e-19)
(0.353437 0.497115 -2.31371e-19)
(0.40974 0.498594 2.64277e-19)
(0.455709 0.478483 2.709e-19)
(0.495157 0.449416 1.84153e-19)
(0.530495 0.418318 -1.73188e-20)
(0.562988 0.388243 1.01113e-20)
(0.59322 0.360179 -7.02938e-20)
(0.621468 0.334267 2.14973e-19)
(0.6479 0.31039 2.02141e-19)
(0.672647 0.288383 -1.27529e-19)
(0.695825 0.268086 3.42691e-19)
(0.717543 0.249353 -7.94771e-20)
(0.737898 0.232048 4.10494e-19)
(0.756981 0.216051 1.93101e-19)
(0.774877 0.201249 4.17886e-20)
(0.791665 0.187538 -2.51892e-20)
(0.807413 0.174827 -2.30334e-19)
(0.822158 0.163043 2.7416e-19)
(0.835977 0.152111 -1.80105e-19)
(0.849139 0.141865 -2.13698e-19)
(0.861703 0.132158 1.93451e-20)
(0.872185 0.12357 1.59205e-19)
(0.0686289 0.147565 -2.4374e-20)
(0.172518 0.334762 2.81843e-19)
(0.26052 0.435261 -1.18168e-19)
(0.330578 0.474476 -6.74e-20)
(0.386936 0.475207 -1.13672e-19)
(0.433962 0.455572 -2.96613e-19)
(0.474886 0.427597 1.72431e-19)
(0.511793 0.39782 4.51435e-19)
(0.545795 0.369086 3.79583e-19)
(0.577426 0.342299 3.73911e-20)
(0.606955 0.317579 2.5229e-19)
(0.634555 0.294808 -2.76957e-19)
(0.660367 0.273826 -5.22031e-19)
(0.684517 0.25448 -2.91189e-19)
(0.707121 0.23663 1.16904e-20)
(0.728285 0.220147 2.2901e-19)
(0.748107 0.204913 2.32474e-19)
(0.766677 0.190823 5.31081e-21)
(0.784081 0.177776 1.90338e-19)
(0.800392 0.165685 -1.26052e-19)
(0.815654 0.15448 -2.27896e-19)
(0.82995 0.144088 -2.02625e-19)
(0.843533 0.134361 5.54668e-20)
(0.856453 0.125162 4.90854e-20)
(0.867371 0.116983 -1.46827e-19)
(0.0616254 0.140984 -3.97176e-19)
(0.156774 0.319002 9.7458e-20)
(0.240288 0.413892 2.31737e-20)
(0.308685 0.450407 2.93896e-19)
(0.365148 0.450502 -2.64914e-19)
(0.413219 0.431475 4.22679e-19)
(0.455572 0.404718 -2.8722e-19)
(0.493983 0.376367 -1.9568e-19)
(0.529429 0.349064 -5.28416e-19)
(0.562396 0.323635 7.40237e-20)
(0.593148 0.300178 -1.01247e-19)
(0.621863 0.278576 -1.61308e-19)
(0.648691 0.258678 2.49579e-19)
(0.673768 0.240336 9.84201e-20)
(0.697218 0.223417 -3.68047e-20)
(0.719153 0.207798 -2.1624e-19)
(0.739679 0.193369 -3.08087e-19)
(0.758892 0.180026 -1.56993e-19)
(0.776884 0.167675 -2.99956e-19)
(0.793731 0.156234 1.28014e-19)
(0.809486 0.145634 -4.4021e-20)
(0.824237 0.135806 6.13818e-19)
(0.83822 0.126619 -3.82662e-19)
(0.85148 0.117945 -1.75284e-19)
(0.862823 0.110193 2.46911e-19)
(0.0548849 0.133823 4.68158e-20)
(0.141692 0.302065 -9.74068e-20)
(0.220974 0.391148 -2.68245e-19)
(0.287845 0.424976 7.04964e-20)
(0.344455 0.424542 -4.46864e-20)
(0.393549 0.406252 -9.21251e-20)
(0.437273 0.38083 2.12748e-19)
(0.47712 0.354005 -5.25943e-19)
(0.513939 0.328219 2.97788e-19)
(0.548174 0.304223 -2.52055e-19)
(0.580086 0.282096 -2.27768e-19)
(0.609859 0.261726 1.5109e-19)
(0.637652 0.242966 1.01723e-19)
(0.663608 0.225679 2.12927e-19)
(0.687859 0.209737 3.10241e-19)
(0.710526 0.195025 6.10641e-20)
(0.731719 0.181436 4.22005e-19)
(0.751542 0.168875 -1.76359e-19)
(0.77009 0.157252 1.74889e-19)
(0.787446 0.146489 -1.79702e-19)
(0.80367 0.136519 2.34379e-19)
(0.818851 0.127279 -2.58486e-19)
(0.833213 0.118651 9.27215e-20)
(0.846794 0.110517 -6.59461e-20)
(0.858547 0.10321 -1.04124e-19)
(0.0484482 0.126107 2.98444e-19)
(0.127351 0.28401 -1.03641e-19)
(0.202667 0.3671 1.44874e-19)
(0.268145 0.398258 -5.73903e-21)
(0.324933 0.397398 3.16218e-19)
(0.375016 0.379965 -3.94133e-19)
(0.420048 0.355988 1.9116e-19)
(0.461255 0.330783 1.49382e-19)
(0.499369 0.306596 8.82826e-20)
(0.534801 0.284104 2.03231e-19)
(0.567806 0.263372 -1.29153e-19)
(0.598577 0.244291 4.38299e-19)
(0.627278 0.226723 -1.79467e-19)
(0.654063 0.210538 -1.19796e-19)
(0.67907 0.195617 -3.30163e-19)
(0.702426 0.18185 -2.33976e-19)
(0.724249 0.169138 -8.676e-20)
(0.744646 0.157391 2.28611e-19)
(0.763719 0.146525 -3.64198e-20)
(0.781554 0.136465 3.5185e-19)
(0.798218 0.12715 -4.17937e-20)
(0.813805 0.11852 -1.72419e-19)
(0.828522 0.11047 -8.30604e-20)
(0.842406 0.10289 6.41056e-20)
(0.854551 0.0960477 -3.71527e-20)
(0.0423538 0.117867 1.66088e-20)
(0.113826 0.264901 -1.69192e-19)
(0.185451 0.341824 1.74739e-19)
(0.249662 0.370331 -5.43103e-20)
(0.306651 0.36914 9.29512e-20)
(0.357684 0.352678 1.17321e-19)
(0.403951 0.33025 -2.69413e-19)
(0.446435 0.306755 -2.6533e-19)
(0.485764 0.284242 1.24611e-20)
(0.522316 0.263321 -2.85621e-19)
(0.556345 0.244044 3.42025e-19)
(0.588048 0.226307 -3.48027e-19)
(0.617601 0.20998 1.81128e-19)
(0.645161 0.194942 9.13154e-21)
(0.670875 0.181082 1.34949e-19)
(0.694876 0.168297 2.41953e-19)
(0.717287 0.156496 7.14911e-20)
(0.738222 0.145593 -2.88762e-19)
(0.757784 0.135512 -7.57319e-20)
(0.776068 0.126181 -1.18519e-19)
(0.793144 0.117543 -1.42533e-20)
(0.80911 0.109543 5.19921e-20)
(0.824157 0.102088 1.3778e-19)
(0.838326 0.0950768 1.03555e-19)
(0.850843 0.0887169 1.07235e-19)
(0.036638 0.109134 -1.96848e-19)
(0.101185 0.244805 1.40595e-20)
(0.169404 0.315403 -8.31053e-20)
(0.232472 0.341276 3.4309e-19)