/*--------------------------------*- C++ -*----------------------------------*\
  =========                 |
  \\      /  F ield         | OpenFOAM: The Open Source CFD Toolbox
   \\    /   O peration     | Website:  https://openfoam.org
    \\  /    A nd           | Version:  7
     \\/     M anipulation  |
\*---------------------------------------------------------------------------*/
FoamFile
{
    version     2.0;
    format      ascii;
    class       volScalarField;
    location    "15";
    object      p;
}
// * * * * * * * * * * * * * * * * * * * * * * * * * * * * * * * * * * * * * //

dimensions      [0 2 -2 0 0 0 0];

internalField   nonuniform List<scalar> 
1987
(
-0.115117
-0.105512
-0.142472
-0.129273
-0.117485
-0.10696
-0.0975648
-0.182696
-0.164339
-0.147977
-0.133397
-0.12041
-0.108848
-0.0985566
-0.0894016
-0.215967
-0.193033
-0.172612
-0.154452
-0.13831
-0.123972
-0.111238
-0.0999386
-0.0899128
-0.0810248
-0.259063
-0.230533
-0.204977
-0.182227
-0.16203
-0.144123
-0.128252
-0.114204
-0.101762
-0.0907586
-0.081032
-0.0724404
-0.312624
-0.278586
-0.247125
-0.218712
-0.19336
-0.170865
-0.150958
-0.13336
-0.117814
-0.104093
-0.0919864
-0.081316
-0.0719205
-0.0636544
-0.0563831
-0.335653
-0.299901
-0.265758
-0.234387
-0.206189
-0.181123
-0.158956
-0.139405
-0.122172
-0.106999
-0.0936518
-0.0819193
-0.0716184
-0.0625861
-0.0546743
-0.0477476
-0.390101
-0.357826
-0.322126
-0.286146
-0.25203
-0.220864
-0.192975
-0.168277
-0.146517
-0.127378
-0.110567
-0.0958168
-0.0828888
-0.0715703
-0.0616748
-0.0530374
-0.0455083
-0.0389516
-0.419116
-0.402337
-0.376392
-0.34351
-0.307439
-0.271378
-0.23742
-0.20657
-0.179087
-0.154843
-0.133552
-0.114891
-0.0985575
-0.08428
-0.0718157
-0.0609504
-0.0514955
-0.0432845
-0.0361658
-0.0300042
-0.415773
-0.404812
-0.387752
-0.361261
-0.327908
-0.291618
-0.255623
-0.221952
-0.191528
-0.164546
-0.140832
-0.120081
-0.101959
-0.0861588
-0.0724024
-0.0604454
-0.050072
-0.0410922
-0.0333383
-0.0266575
-0.0209155
-0.0160373
-0.399479
-0.388956
-0.371668
-0.344733
-0.311048
-0.274693
-0.238909
-0.205652
-0.175762
-0.14937
-0.126266
-0.106124
-0.0886021
-0.0733873
-0.0601996
-0.0487924
-0.0389488
-0.0304778
-0.0232111
-0.0169949
-0.0116965
-0.00724446
-0.381623
-0.371569
-0.354112
-0.326839
-0.292968
-0.256704
-0.221272
-0.188551
-0.1593
-0.133586
-0.111168
-0.0917014
-0.0748386
-0.0602617
-0.047689
-0.036873
-0.0275959
-0.0196665
-0.0129162
-0.0071905
-0.00235908
0.0016465
-0.362237
-0.352682
-0.335119
-0.307622
-0.273714
-0.237692
-0.202747
-0.170686
-0.142173
-0.117224
-0.0955646
-0.0768383
-0.0606911
-0.0468026
-0.0348899
-0.0247049
-0.0160298
-0.00867374
-0.00246786
0.00274204
0.00708377
0.0106234
0.0135383
-0.341364
-0.332336
-0.314734
-0.287135
-0.25334
-0.217694
-0.183382
-0.152094
-0.124417
-0.100314
-0.0794849
-0.061561
-0.0461842
-0.0330326
-0.021823
-0.0123073
-0.00426833
0.00248413
0.00811846
0.0127883
0.0166183
0.0196733
0.0221484
-0.319056
-0.310582
-0.293016
-0.265445
-0.231889
-0.196765
-0.163223
-0.13282
-0.10607
-0.0828916
-0.0629605
-0.0458985
-0.0313445
-0.0189762
-0.00851063
0.000299255
0.00766964
0.0137896
0.0188266
0.022933
0.02623
0.0287823
0.0308028
-0.29537
-0.287481
-0.270033
-0.242617
-0.209389
-0.174984
-0.142324
-0.112908
-0.0871747
-0.0649949
-0.046026
-0.0298821
-0.0162006
-0.00465945
0.00502311
0.0130928
0.019764
0.0252242
0.0296395
0.0331604
0.0359039
0.037936
0.0394866
0.0411175
-0.270373
-0.263108
-0.245859
-0.218638
-0.185992
-0.1524
-0.120739
-0.0924112
-0.0677751
-0.0466641
-0.0287179
-0.0135452
-0.000782981
0.00988977
0.0187529
0.02605
0.0319935
0.0367685
0.0405395
0.043454
0.0456244
0.0471198
0.0481853
0.0493666
-0.244138
-0.237543
-0.220558
-0.193642
-0.161729
-0.129079
-0.0985304
-0.0713808
-0.0479193
-0.0279422
-0.0110752
0.00307668
0.0148762
0.0246421
0.032652
0.0391467
0.044336
0.0484024
0.0515082
0.0537969
0.0553754
0.0563188
0.0568863
0.0575904
-0.216742
-0.210875
-0.19414
-0.167788
-0.136677
-0.105092
-0.075759
-0.0498733
-0.0276572
-0.00887454
0.00686091
0.0199464
0.0307429
0.0395668
0.0466923
0.0523574
0.0567684
0.0601051
0.0625268
0.0641713
0.0651395
0.0655178
0.06558
0.0657812
0.0647355
-0.188256
-0.1832
-0.166801
-0.141101
-0.110918
-0.0805115
-0.0524907
-0.0279472
-0.00704149
0.0104915
0.0250476
0.0370248
0.0467819
0.0546315
0.0608447
0.0656556
0.0692668
0.071855
0.0735758
0.0745591
0.0748998
0.074704
0.0742573
0.0739055
0.0722241
-0.158795
-0.154629
-0.138639
-0.11367
-0.084537
-0.0554149
-0.0287932
-0.00566325
0.0138731
0.0301064
0.04344
0.0542715
0.0629562
0.0698031
0.0750789
0.0790138
0.0818065
0.0836301
0.0846354
0.0849425
0.0846434
0.0838745
0.0829052
0.0818485
0.0792444
-0.128613
-0.125148
-0.109729
-0.0855923
-0.0576199
-0.0298801
-0.00473691
0.0169155
0.0350298
0.049919
0.0619919
0.0716444
0.0792279
0.0850469
0.0893637
0.0924039
0.0943621
0.0954076
0.0956853
0.0953051
0.0943642
0.0930363
0.0915068
0.0894705
0.0855693
-0.0976998
-0.0949378
-0.0801732
-0.056968
-0.0302573
-0.00398794
0.0196059
0.0397243
0.0563705
0.0698768
0.0806556
0.0891003
0.0955578
0.100327
0.103667
0.105797
0.106907
0.107164
0.106704
0.105631
0.104056
0.102185
0.100033
0.0968341
0.0918983
-0.0661497
-0.0641306
-0.0500782
-0.0278978
-0.00254164
0.0221787
0.0441611
0.0626968
0.0778352
0.0899255
0.0993823
0.106595
0.111906
0.115609
0.117955
0.119162
0.119415
0.118874
0.11767
0.115902
0.113703
0.111279
0.108424
0.104133
0.100338
-0.034088
-0.0328406
-0.0195554
0.00151447
0.0254329
0.0485355
0.0688532
0.085765
0.099363
0.11001
0.118122
0.124084
0.128231
0.130853
0.132196
0.132471
0.131858
0.130513
0.12856
0.126099
0.123276
0.120262
0.116698
0.111802
0.108726
-0.00163926
-0.00118377
0.0112812
0.0311634
0.0535708
0.0749968
0.0936058
0.10886
0.120892
0.130075
0.136824
0.14152
0.144492
0.146023
0.146354
0.145691
0.144208
0.142056
0.139354
0.136202
0.132751
0.129128
0.124919
0.11963
0.116656
0.0310725
0.030721
0.0423164
0.0609423
0.0817756
0.101476
0.118341
0.131914
0.142359
0.150063
0.155438
0.158858
0.160647
0.161082
0.160396
0.158791
0.156436
0.153476
0.150026
0.146187
0.142104
0.137871
0.133079
0.127456
0.124307
0.0639221
0.0627531
0.0734339
0.090744
0.109951
0.127887
0.142982
0.154854
0.163702
0.169918
0.173911
0.17605
0.176653
0.175989
0.174287
0.17174
0.168515
0.164749
0.160553
0.156029
0.151315
0.146479
0.141143
0.135169
0.131703
0.0967836
0.0947905
0.104517
0.120461
0.137999
0.154143
0.167451
0.177613
0.184857
0.189581
0.192192
0.193051
0.192469
0.190708
0.187992
0.184507
0.180414
0.175847
0.170911
0.165707
0.160365
0.154936
0.149075
0.142729
0.13887
0.129531
0.126711
0.13545
0.149987
0.165823
0.180156
0.191669
0.200119
0.205761
0.208997
0.21023
0.209813
0.208051
0.2052
0.201475
0.197059
0.192106
0.186744
0.181076
0.175198
0.169233
0.163222
0.156848
0.150112
0.145817
0.162038
0.158392
0.166116
0.179214
0.193329
0.205842
0.215559
0.222303
0.226351
0.228109
0.227972
0.22629
0.223358
0.219426
0.214704
0.209366
0.203562
0.197415
0.191024
0.184481
0.1779
0.171318
0.164438
0.157301
0.152545
0.194181
0.189713
0.196402
0.208038
0.22042
0.231114
0.239045
0.244097
0.246566
0.246859
0.245369
0.242436
0.238349
0.23335
0.227642
0.221396
0.214754
0.207835
0.200731
0.193533
0.186347
0.179204
0.171826
0.164284
0.159053
0.225836
0.220552
0.226192
0.236356
0.247005
0.25589
0.262053
0.265431
0.266342
0.265193
0.262369
0.258204
0.252981
0.246933
0.240258
0.233119
0.225655
0.217976
0.210175
0.202334
0.194555
0.186862
0.178996
0.171049
0.165334
0.25688
0.250794
0.255377
0.264065
0.27299
0.280087
0.284506
0.28624
0.285621
0.283056
0.278924
0.273552
0.267214
0.260139
0.252516
0.244505
0.236236
0.227816
0.219332
0.210864
0.202505
0.194274
0.185931
0.177585
0.171382
0.287196
0.280321
0.283848
0.291067
0.298287
0.303624
0.306334
0.306459
0.304343
0.300394
0.294984
0.288434
0.281009
0.272932
0.264386
0.255524
0.246471
0.23733
0.228181
0.219102
0.210179
0.201425
0.192619
0.18388
0.17719
0.316667
0.30902
0.311499
0.317265
0.322809
0.326424
0.327466
0.326022
0.322451
0.317156
0.310504
0.302808
0.294327
0.285277
0.275835
0.266147
0.256334
0.246493
0.236701
0.227029
0.217559
0.208299
0.199044
0.189922
0.182751
0.34518
0.336783
0.338227
0.342565
0.346472
0.34841
0.347834
0.34487
0.339888
0.33329
0.325437
0.316633
0.307131
0.297141
0.286833
0.276348
0.2658
0.255284
0.244871
0.234628
0.224629
0.21488
0.205194
0.195701
0.188055
0.372626
0.363503
0.363934
0.366878
0.369193
0.36951
0.36737
0.362941
0.356601
0.348748
0.339738
0.329868
0.319385
0.30849
0.297349
0.286098
0.274846
0.26368
0.252671
0.241879
0.231373
0.221154
0.211055
0.201205
0.193094
0.398901
0.38908
0.388523
0.390116
0.390897
0.389653
0.386014
0.38018
0.372538
0.363484
0.353366
0.342476
0.331053
0.319293
0.307356
0.295372
0.283446
0.271661
0.260081
0.248765
0.237775
0.227109
0.216616
0.206423
0.197861
0.423903
0.413415
0.411906
0.412198
0.411507
0.408773
0.403703
0.39653
0.387649
0.377452
0.36628
0.354419
0.342102
0.32952
0.316826
0.304146
0.29158
0.279206
0.267085
0.255271
0.24382
0.232729
0.221864
0.211346
0.202348
0.447539
0.436417
0.433995
0.433045
0.430954
0.426805
0.420381
0.411941
0.401888
0.390609
0.378441
0.365663
0.352502
0.339142
0.325734
0.312397
0.299226
0.286296
0.273664
0.261381
0.249495
0.238003
0.226789
0.215962
0.206548
0.469718
0.457999
0.454711
0.452584
0.449172
0.443691
0.435993
0.426364
0.41521
0.402916
0.389813
0.376174
0.362221
0.348133
0.334055
0.320101
0.306364
0.292913
0.279803
0.267079
0.254786
0.24292
0.231379
0.220262
0.210452
0.490355
0.478079
0.473976
0.470745
0.466097
0.459374
0.450488
0.439752
0.427573
0.414335
0.400362
0.385922
0.371232
0.356467
0.341765
0.327239
0.312975
0.299041
0.285486
0.272353
0.259681
0.247467
0.235623
0.224237
0.214056
0.509374
0.496582
0.49172
0.487465
0.481673
0.473802
0.463821
0.452063
0.438939
0.424831
0.410056
0.394879
0.37951
0.36412
0.348845
0.333791
0.319042
0.304662
0.290699
0.27719
0.264169
0.251635
0.239514
0.227879
0.217351
0.526701
0.513439
0.507879
0.502685
0.495846
0.486927
0.475946
0.463257
0.449273
0.434371
0.418866
0.403017
0.38703
0.371072
0.355274
0.33974
0.32455
0.309764
0.295428
0.281577
0.268239
0.255414
0.243041
0.23118
0.220334
0.542272
0.528585
0.522394
0.51635
0.508569
0.498705
0.486826
0.473299
0.458542
0.442927
0.426766
0.410312
0.39377
0.377301
0.361034
0.345069
0.329483
0.314333
0.299663
0.285504
0.271882
0.258796
0.246198
0.234132
0.222998
0.556027
0.541964
0.535212
0.528415
0.519797
0.509098
0.496424
0.482158
0.466717
0.450471
0.433731
0.416744
0.399711
0.382792
0.36611
0.349764
0.333828
0.318358
0.303392
0.288961
0.275088
0.261772
0.248975
0.23673
0.225339
0.567914
0.553526
0.546286
0.538835
0.529493
0.518071
0.50471
0.489804
0.473772
0.456982
0.43974
0.422293
0.404836
0.387527
0.370488
0.353813
0.337575
0.321826
0.306606
0.291941
0.277851
0.264337
0.251369
0.238968
0.227353
0.57789
0.563227
0.555577
0.547575
0.537623
0.525595
0.511657
0.496213
0.479685
0.462439
0.444776
0.426942
0.40913
0.391494
0.374154
0.357204
0.340712
0.324731
0.309297
0.294435
0.280163
0.266483
0.253371
0.24084
0.229037
0.585916
0.571033
0.56305
0.554603
0.544161
0.531643
0.517241
0.501365
0.484438
0.466824
0.448824
0.430678
0.41258
0.394681
0.3771
0.359927
0.343232
0.327064
0.311458
0.296438
0.28202
0.268205
0.254979
0.242342
0.230387
0.591962
0.576912
0.568679
0.559897
0.549084
0.536198
0.521445
0.505244
0.488016
0.470125
0.45187
0.43349
0.415176
0.397079
0.379316
0.361977
0.345128
0.328819
0.313083
0.297945
0.283416
0.269501
0.256188
0.243472
0.231402
0.596005
0.580844
0.572442
0.563436
0.552375
0.539242
0.524256
0.507837
0.490408
0.472332
0.453906
0.435369
0.416911
0.398682
0.380797
0.363346
0.346395
0.329991
0.314169
0.298951
0.284349
0.270367
0.256996
0.244227
0.23208
0.525663
0.509135
0.491605
0.473437
0.454925
0.43631
0.41778
0.399485
0.381539
0.364032
0.347029
0.330578
0.314713
0.299455
0.284816
0.2708
0.2574
0.244605
0.232419
0.0738017
0.0806607
0.0759835
0.0873404
0.0829214
0.0965437
0.105953
0.110703
0.114203
0.115386
0.115706
0.114608
0.112929
0.110413
0.107589
0.104337
0.101006
0.097529
0.0941447
0.0908034
0.0876703
0.0847008
0.0820111
0.0795527
0.077411
0.0755427
0.0740213
0.0728104
0.0719879
0.0715393
0.0895685
0.0981435
0.103994
0.108105
0.110101
0.111041
0.110583
0.109442
0.107434
0.105045
0.102184
0.0991862
0.0960018
0.0928642
0.0897352
0.0867793
0.0839598
0.0813933
0.0790379
0.0769794
0.0751791
0.0737099
0.0725389
0.0717422
0.0713077
0.219777
0.207108
0.194894
0.183536
0.172712
0.16267
0.153189
0.14443
0.136222
0.12868
0.12166
0.115254
0.109332
0.103977
0.0990671
0.0946572
0.0906616
0.0871755
0.0840682
0.0814298
0.079151
0.0773303
0.0758765
0.0749015
0.0743708
0.219497
0.206879
0.194704
0.18338
0.172585
0.162566
0.153104
0.14436
0.136165
0.128633
0.121622
0.115222
0.109306
0.103955
0.0990491
0.0946423
0.0906487
0.0871641
0.0840582
0.0814207
0.0791428
0.0773227
0.0758695
0.0748948
0.0743644
0.218939
0.206423
0.194325
0.18307
0.172329
0.162358
0.152934
0.144222
0.136052
0.128541
0.121546
0.11516
0.109254
0.103912
0.099013
0.0946126
0.0906231
0.0871412
0.084038
0.0814026
0.0791264
0.0773076
0.0758555
0.0748815
0.0743515
0.218101
0.205738
0.193757
0.182605
0.171946
0.162046
0.152678
0.144014
0.135882
0.128403
0.121432
0.115066
0.109176
0.103847
0.0989588
0.0945682
0.0905848
0.0871069
0.0840078
0.0813753
0.0791018
0.0772849
0.0758344
0.0748615
0.0743322
0.216986
0.204826
0.193
0.181986
0.171436
0.16163
0.152338
0.143738
0.135656
0.128218
0.12128
0.114942
0.109072
0.103761
0.0988861
0.0945077
0.0905341
0.0870613
0.0839676
0.0813391
0.0790691
0.0772547
0.0758065
0.0748348
0.0743065
0.215593
0.203688
0.192055
0.181212
0.170799
0.161112
0.151913
0.143392
0.135373
0.127988
0.121091
0.114786
0.108943
0.103653
0.0987939
0.0944328
0.0904717
0.0870044
0.0839174
0.0812939
0.0790282
0.077217
0.0757715
0.0748016
0.0742744
0.213926
0.202324
0.190923
0.180286
0.170037
0.160491
0.151404
0.142979
0.135034
0.127712
0.120864
0.1146
0.108788
0.103523
0.0986832
0.0943537
0.0903977
0.0869364
0.0838573
0.0812397
0.0789793
0.0771719
0.0757297
0.0747618
0.0742359
0.211984
0.200737
0.189605
0.179208
0.169149
0.159767
0.150812
0.142498
0.13464
0.127392
0.1206
0.114383
0.108608
0.103373
0.098555
0.0942457
0.0903101
0.0868573
0.0837872
0.0811767
0.0789224
0.0771194
0.075681
0.0747154
0.0741911
0.209771
0.198927
0.188103
0.177978
0.168136
0.158943
0.150136
0.141949
0.134191
0.127026
0.120299
0.114136
0.108402
0.103201
0.0984099
0.0941279
0.0902094
0.0867674
0.0837074
0.081105
0.0788575
0.0770596
0.0756255
0.0746626
0.0741401
0.207289
0.196896
0.186416
0.176599
0.167
0.158018
0.149378
0.141333
0.133687
0.126615
0.119961
0.113859
0.108172
0.103009
0.0982473
0.0939936
0.0900957
0.0866668
0.0836179
0.0810245
0.0787847
0.0769924
0.0755633
0.0746033
0.0740827
0.20454
0.194646
0.184547
0.17507
0.16574
0.156993
0.148538
0.140651
0.133128
0.126161
0.119588
0.113552
0.107917
0.102797
0.0980676
0.0938438
0.0899693
0.0865557
0.0835188
0.0809355
0.0787041
0.0769181
0.0754943
0.0745376
0.0740192
0.201528
0.19218
0.182498
0.173394
0.16436
0.155869
0.147617
0.139903
0.132516
0.125662
0.119178
0.113216
0.107638
0.102564
0.0978709
0.0936783
0.0898286
0.0864346
0.0834103
0.080838
0.0786159
0.0768367
0.0754188
0.0744657
0.0739496
0.198255
0.189501
0.18027
0.171573
0.162858
0.154647
0.146616
0.13909
0.13185
0.12512
0.118732
0.11285
0.107334
0.102311
0.0976572
0.0934945
0.0896699
0.0863049
0.0832926
0.0807321
0.07852
0.0767482
0.0753367
0.0743875
0.0738739
0.194726
0.186609
0.177866
0.169606
0.161238
0.153328
0.145535
0.138212
0.131132
0.124536
0.118252
0.112456
0.107007
0.102038
0.0974268
0.0932947
0.0895353
0.0861669
0.083166
0.0806179
0.0784167
0.0766528
0.0752481
0.0743031
0.0737921
0.190945
0.18351
0.175287
0.167498
0.159499
0.151913
0.144375
0.137271
0.130361
0.123909
0.117737
0.112033
0.106656
0.101746
0.0971803
0.0930816
0.0893446
0.0860168
0.0830305
0.0804956
0.0783059
0.0765506
0.0751532
0.0742126
0.0737044
0.186916
0.180205
0.172536
0.165248
0.157644
0.150404
0.143138
0.136267
0.129539
0.12324
0.117187
0.111582
0.106282
0.101434
0.0969178
0.092857
0.0891559
0.0858549
0.0828858
0.0803654
0.078188
0.0764417
0.075052
0.0741162
0.0736109
0.182644
0.176699
0.169614
0.16286
0.155674
0.148802
0.141824
0.1352
0.128667
0.12253
0.116604
0.111103
0.105885
0.101104
0.0966394
0.0926192
0.0889488
0.0856468
0.0827348
0.0802276
0.0780629
0.0763261
0.0749446
0.0740138
0.0735115
0.178133
0.172994
0.166525
0.160335
0.153589
0.147107
0.140434
0.134072
0.127744
0.121779
0.115988
0.110598
0.105466
0.100754
0.0963455
0.0923677
0.0887265
0.0855349
0.0825807
0.0800821
0.0779308
0.0762041
0.0748311
0.0739057
0.0734064
0.173389
0.169095
0.163271
0.157675
0.151393
0.145321
0.13897
0.132884
0.126772
0.120988
0.115339
0.110065
0.105024
0.100387
0.0960362
0.0921039
0.0884946
0.085307
0.0824106
0.0799294
0.0777919
0.0760757
0.0747117
0.0737918
0.0732957
0.168417
0.165006
0.159854
0.154882
0.149086
0.143445
0.137432
0.131636
0.125751
0.120157
0.114657
0.109506
0.104561
0.100001
0.0957119
0.0918278
0.0882557
0.0850976
0.0822184
0.0797716
0.0776463
0.0759412
0.0745864
0.0736724
0.0731795
0.163221
0.16073
0.156277
0.151959
0.14667
0.141481
0.135822
0.130328
0.124683
0.119287
0.113945
0.10892
0.104077
0.0995976
0.0953727
0.0915391
0.0880062
0.0848769
0.0820708
0.0796063
0.0774944
0.0758006
0.0744554
0.0735474
0.0730578
0.157807
0.156272
0.152542
0.148908
0.144148
0.13943
0.13414
0.128963
0.123568
0.118379
0.113201
0.10831
0.103572
0.0991768
0.095019
0.0912381
0.0877465
0.0846471
0.0818558
0.0794223
0.0773379
0.075654
0.0743188
0.0734171
0.0729308
0.152176
0.151635
0.148652
0.14573
0.14152
0.137293
0.132389
0.127541
0.122406
0.117434
0.112426
0.107674
0.103046
0.098739
0.0946511
0.0909252
0.087477
0.0844108
0.0816444
0.0792676
0.0771728
0.0755015
0.0741768
0.0732815
0.0727986
0.146332
0.146823
0.14461
0.142429
0.13879
0.135071
0.13057
0.126063
0.1212
0.116451
0.111622
0.107014
0.102501
0.0982846
0.0942694
0.0906006
0.0871976
0.0841664
0.0814278
0.0790701
0.0769879
0.0753446
0.0740297
0.0731408
0.0726612
0.140273
0.141839
0.140417
0.139004
0.135959
0.132766
0.128683
0.124529
0.119949
0.115433
0.110789
0.10633
0.101935
0.0978141
0.0938741
0.0902645
0.0869085
0.0839138
0.0812045
0.0788659
0.0768507
0.0751827
0.0738775
0.0729949
0.0725188
0.133994
0.13668
0.136076
0.135457
0.133028
0.130377
0.126729
0.12294
0.118654
0.114378
0.109926
0.105622
0.10135
0.0973269
0.0934649
0.0899166
0.0866095
0.0836528
0.0809744
0.0786586
0.0766512
0.0750155
0.0737182
0.0728442
0.0723715
0.127486
0.131352
0.131594
0.131789
0.13
0.127906
0.124708
0.121295
0.117313
0.113285
0.109033
0.104889
0.100745
0.0968229
0.0930417
0.0895571
0.0863006
0.0833834
0.0807373
0.0784467
0.0764561
0.074848
0.0735503
0.0726891
0.0722194
0.120754
0.125857
0.126985
0.128016
0.126895
0.125372
0.12264
0.119614
0.115944
0.112172
0.108124
0.104145
0.100131
0.0963126
0.0926133
0.089193
0.0859875
0.0831101
0.0804963
0.0782312
0.0762613
0.0746647
0.0734008
0.07253
0.0720628
0.113686
0.120115
0.122205
0.124124
0.123705
0.122782
0.120534
0.117911
0.114565
0.111056
0.107216
0.103403
0.0995204
0.0958053
0.092187
0.0888302
0.0856744
0.0828357
0.0802532
0.0780128
0.0760631
0.0744796
0.0732232
0.0723675
0.0719016
0.105957
0.11391
0.117088
0.119882
0.120192
0.119884
0.118149
0.115955
0.11296
0.109741
0.106136
0.102514
0.0987842
0.0951921
0.0916729
0.088395
0.085303
0.082515
0.0799741
0.0777668
0.0758444
0.0742817
0.0730393
0.0721961
0.0717355
)
;

boundaryField
{
    inlet
    {
        type            zeroGradient;
    }
    outlet
    {
        type            fixedValue;
        value           nonuniform 0();
    }
    cylinder
    {
        type            zeroGradient;
    }
    top
    {
        type            symmetryPlane;
    }
    bottom
    {
        type            symmetryPlane;
    }
    defaultFaces
    {
        type            empty;
    }
    procBoundary8to4
    {
        type            processor;
        value           nonuniform List<scalar> 
51
(
0.59803
0.582814
0.574328
0.565208
0.554024
0.540767
0.540767
0.525663
0.509135
0.491605
0.473437
0.454925
0.43631
0.41778
0.399485
0.381539
0.364032
0.347029
0.330578
0.314713
0.299455
0.284816
0.2708
0.2574
0.244605
0.232419
0.219777
0.207108
0.194894
0.183536
0.172712
0.16267
0.153189
0.14443
0.136222
0.12868
0.12166
0.115254
0.109332
0.103977
0.0990671
0.0946572
0.0906616
0.0871755
0.0840682
0.0814298
0.079151
0.0773303
0.0758765
0.0749015
0.0743708
)
;
    }
    procBoundary8to9
    {
        type            processor;
        value           nonuniform List<scalar> 
29
(
-0.123025
-0.113239
-0.151193
-0.137822
-0.125844
-0.125844
-0.192279
-0.173781
-0.157247
-0.157247
-0.226324
-0.203279
-0.203279
-0.270193
-0.241643
-0.241643
-0.324301
-0.2905
-0.2905
-0.348003
-0.348003
-0.402373
-0.370834
-0.370834
-0.431859
-0.415406
-0.415406
-0.430484
-0.430484
)
;
    }
    procBoundary8to12
    {
        type            processor;
        value           nonuniform List<scalar> 
55
(
-0.096907
-0.0891736
-0.0812509
-0.0731414
-0.0648501
-0.0648501
-0.0500163
-0.0417193
-0.0332847
-0.0247209
-0.0247209
-0.0118953
-0.00349554
0.00498618
0.00498618
0.0163799
0.0246055
0.0328574
0.0328574
0.0416357
0.0493894
0.057091
0.057091
0.059909
0.0670576
0.0670576
0.0683672
0.0683672
0.0708874
0.0777131
0.083632
0.0914823
0.0977122
0.102215
0.104841
0.106313
0.106432
0.1058
0.104283
0.102328
0.0998643
0.0972132
0.0943357
0.0914617
0.0885612
0.0857986
0.0831436
0.0807137
0.0784728
0.0765075
0.0747833
0.0733728
0.0722464
0.071479
0.0710599
)
;
    }
}


// ************************************************************************* //
