/*--------------------------------*- C++ -*----------------------------------*\
  =========                 |
  \\      /  F ield         | OpenFOAM: The Open Source CFD Toolbox
   \\    /   O peration     | Website:  https://openfoam.org
    \\  /    A nd           | Version:  7
     \\/     M anipulation  |
\*---------------------------------------------------------------------------*/
FoamFile
{
    version     2.0;
    format      ascii;
    class       volScalarField;
    location    "14.5";
    object      p;
}
// * * * * * * * * * * * * * * * * * * * * * * * * * * * * * * * * * * * * * //

dimensions      [1 -1 -2 0 0 0 0];

internalField   nonuniform List<scalar> 
4032
(
1
1
1
1
1
1
1
1
1
1
1
1.10229
6.86577
10.5697
10.7252
10.9278
11.1164
11.2962
11.4627
11.6128
11.745
11.851
11.9313
11.9882
1
1
1
1
1
1
1
1
1
1
1
1.05231
6.7111
10.5323
10.6997
10.9003
11.0889
11.2668
11.4306
11.5764
11.7022
11.7997
11.8693
11.9188
1
1
1
1
1
1
1
1
1
1
1
1.00295
6.36638
10.4733
10.6483
10.8429
11.0286
11.201
11.3594
11.5004
11.6238
11.722
11.7922
11.8464
1
1
1
1
1
1
1
1
1
1
1
1.00003
5.8423
10.3618
10.5732
10.7595
10.9421
11.1079
11.2604
11.3958
11.5129
11.6004
11.6542
11.6897
1
1
1
1
1
1
1
1
1
1
1
1
5.15663
10.1826
10.4835
10.6594
10.835
10.9875
11.1229
11.2366
11.3295
11.4008
11.4453
11.4996
1
1
1
1
1
1
1
1
1
1
1
1
4.33327
9.89351
10.3738
10.5375
10.6981
10.8304
10.9448
11.0408
11.1194
11.1785
11.1935
11.151
1
1
1
1
1
1
1
1
1
1
1
1
3.4194
9.44539
10.2888
10.4361
10.5743
10.6754
10.748
10.7982
10.8123
10.7672
10.6934
10.6428
1
1
1
1
1
1
1
1
1
1
1
1
2.42762
8.74393
10.2221
10.3322
10.4395
10.5064
10.5341
10.5288
10.468
10.373
10.2299
10.2001
1
1
1
1
1
1
1
1
1
1
1
1
1.46917
7.80476
10.2091
10.1931
10.2744
10.3038
10.2848
10.2186
10.0645
9.78204
9.01144
6.96524
1
1
1
1
1
1
1
1
1
1
1
1
1.02953
6.49662
9.96478
9.89639
9.98701
10.0228
9.98553
9.86425
9.62269
9.1378
8.33937
6.24023
1
1
1
1
1
1
1
1
1
1
1
1
1
4.71472
9.42684
9.76511
9.83567
9.79934
9.70894
9.52284
9.2162
8.65081
7.8321
5.89696
1
1
1
1
1
1
1
1
1
1
1
1
0.999996
2.84958
8.63315
9.62272
9.61649
9.57751
9.45713
9.21686
8.84587
8.2772
7.39103
5.83556
1
1
1
1
1
1
1
1
1
1
1
1
0.999999
1.35943
7.51371
9.7212
9.4753
9.34321
9.18648
8.91422
8.51649
7.97058
7.05633
5.88305
1
1
1
1
1
1
1
1
1
1
1
1
1
1.01417
5.69889
9.04575
9.10959
9.07566
8.91678
8.64442
8.25058
7.68269
6.85812
5.92225
1
1
1
1
1
1
1
1
1
1
1
1
1
0.999876
3.1818
8.26934
9.00302
8.93388
8.7418
8.43595
8.05049
7.47871
6.76614
5.98887
1
1
1
1
1
1
1
1
1
1
1
1
1
0.999968
1.35011
7.03077
9.05833
8.7897
8.54645
8.21438
7.83437
7.30387
6.69314
6.03066
1
1
1
1
1
1
1
1
1
1
1
1
1
0.999995
1.01114
4.79832
8.46095
8.51329
8.3205
8.02855
7.65409
7.18028
6.64425
6.06495
1
1
1
1
1
1
1
1
1
1
1
1
1
1
0.999938
2.08587
7.56501
8.49183
8.20144
7.89624
7.52456
7.08295
6.59378
6.08232
1
1
1
1
1
1
1
1
1
1
1
1
1
1
0.999984
1.09473
5.55418
8.24117
7.97872
7.73116
7.38565
6.98279
6.55125
6.13861
1
1
1
1
1
1
1
1
1
1
1
1
1
1
0.999997
1.00055
2.53228
7.31257
7.93583
7.66155
7.30337
6.93082
6.62179
6.48561
1
1
1
1
1
1
1
1
1
1
1
1
1
1
1
0.999999
1.17154
5.39474
7.86478
7.51176
7.2027
6.99331
6.99568
7.23775
1
1
1
1
1
1
1
1
1
1
1
1
1
1
1
1
1.00237
2.3456
6.85101
7.33087
7.24727
7.43436
7.86473
8.11443
1
1
1
1
1
1
1
1
1
1
1
1
1
1
1
1
1
1.13125
4.60597
7.20378
7.89372
8.46064
8.85578
8.68537
1
1
1
1
1
1
1
1
1
1
1
1
1
1
1
1
1
1.00179
1.8845
6.22178
9.06788
9.41623
9.44044
9.00078
1
1
1
1
1
1
1
1
1
1
1
1
1
1
1
1
1
1.00001
1.05844
5.01118
10.0685
10.1084
9.71793
9.24707
1
1
1
1
1
1
1
1
1
1
1
1
1
1
1
1
1
1
1.00049
3.61504
10.3963
10.5189
9.9567
9.46978
1
1
1
1
1
1
1
1
1
1
1
1
1
1
1
1
1
1
1
3.07458
9.95443
10.3998
9.88023
9.5712
1
1
1
1
1
1
1
1
1
1
1
1
1
1
1
1
1
1
1
2.61129
9.20322
10.3593
10.0167
9.83976
1
1
1
1
1
1
1
1
1
1
1
1
1
1
1
1
1
1
1
2.03596
8.61974
10.4304
10.0861
9.91999
1
1
1
1
1
1
1
1
1
1
1
1
1
1
1
1
1
1
1
1.54648
8.02994
10.4338
10.1282
9.98076
1
1
1
1
1
1
1
1
1
1
1
1
1
1
1
1
1
1
1
1.19729
7.37205
10.4244
10.1596
10.02
1
1
1
1
1
1
1
1
1
1
1
1
1
1
1
1
1
1
1
1.00824
6.77606
10.388
10.2001
10.0455
1
1
1
1
1
1
1
1
1
1
1
1
1
1
1
1
1
1
1
1.00005
6.13638
10.3016
10.2381
10.0628
1
1
1
1
1
1
1
1
1
1
1
1
1
1
1
1
1
1
1
1
5.55633
10.2324
10.2879
10.0847
1
1
1
1
1
1
1
1
1
1
1
1
1
1
1
1
1
1
1
1
5.04013
10.1833
10.3344
10.1137
1
1
1
1
1
1
1
1
1
1
1
1
1
1
1
1
1
1
1
1
4.62663
10.1271
10.3769
10.1459
1
1
1
1
1
1
1
1
1
1
1
1
1
1
1
1
1
1
1
1
4.31469
10.0624
10.4106
10.1752
1
1
1
1
1
1
1
1
1
1
1
1
1
1
1
1
1
1
1
1
4.08067
10.0025
10.4359
10.199
1
1
1
1
1
1
1
1
1
1
1
1
1
1
1
1
1
1
1
1
3.93155
9.95059
10.4447
10.2087
1
1
1
1
1
1
1
1
1
1
1
1
1
1
1
1
1
1
1
1
3.8754
9.90927
10.4409
10.2135
1.9031
2.10159
2.5887
3.03647
3.25048
3.39029
3.46295
3.50463
3.52632
3.54884
3.56115
3.57333
3.57605
3.56959
3.56556
3.57318
3.61456
3.67478
3.74117
3.78855
3.82034
3.84737
3.88679
3.94388
4.0234
4.11597
4.2097
4.29378
4.36504
4.42516
4.4773
4.52763
4.58027
4.63722
4.69897
4.76447
4.82906
4.88254
4.91765
4.93426
4.93558
4.92827
4.91714
4.90287
4.88507
4.86622
4.85107
4.84378
4.83946
4.82974
4.80945
4.77959
4.74283
4.70054
4.6521
4.5968
4.53725
4.47923
4.42659
4.37873
4.33214
4.28415
4.2353
4.18863
4.14656
4.1073
4.06629
4.0181
3.96102
3.90022
3.84275
3.79329
3.75266
3.7174
3.67945
3.63282
3.5784
3.52306
3.4737
3.43339
3.40247
3.37109
3.31959
3.26179
3.20849
3.16471
3.13713
3.13145
3.12819
3.09128
3.0443
2.9865
2.93406
2.91108
2.90889
2.99238
3.20659
3.26312
3.20779
3.2569
3.38016
3.45842
3.50742
3.53637
3.53784
3.54459
3.55976
3.58307
3.60953
3.62766
3.6406
3.64935
3.67736
3.71794
3.77488
3.82844
3.86975
3.90095
3.92614
3.95855
4.01053
4.08449
4.17206
4.25972
4.33591
4.39819
4.45426
4.51288
4.57797
4.64323
4.69896
4.74228
4.77975
4.8206
4.86297
4.89532
4.90725
4.90342
4.89638
4.89348
4.89172
4.88314
4.86123
4.83346
4.81042
4.79263
4.77066
4.73502
4.6878
4.63824
4.59296
4.54973
4.5019
4.44925
4.39736
4.35095
4.31035
4.27149
4.22788
4.17885
4.12948
4.08386
4.04353
4.00524
3.96214
3.90844
3.84933
3.79153
3.73913
3.69648
3.66328
3.63298
3.59587
3.54663
3.49361
3.44502
3.40496
3.37364
3.33861
3.28957
3.23352
3.17577
3.12989
3.09655
3.07476
3.06366
3.04174
3.009
2.97295
2.93591
2.92663
2.98416
3.90036
3.7559
3.43194
3.22978
3.31024
3.42664
3.49365
3.50569
3.51518
3.54359
3.59094
3.63972
3.67468
3.69642
3.72011
3.74442
3.77013
3.78957
3.81017
3.84101
3.88725
3.94236
3.99651
4.04308
4.08238
4.12577
4.18535
4.26427
4.35252
4.43029
4.4873
4.53225
4.58675
4.65969
4.74207
4.81453
4.85568
4.87388
4.89321
4.91862
4.93559
4.92944
4.90714
4.88823
4.88504
4.89307
4.89441
4.87335
4.84262
4.81348
4.78954
4.76146
4.71365
4.65381
4.59661
4.54741
4.50189
4.45206
4.39757
4.34432
4.2978
4.26317
4.23591
4.20281
4.15801
4.10734
4.0553
4.00676
3.96776
3.93077
3.8814
3.82256
3.75762
3.69453
3.64043
3.59782
3.56914
3.53964
3.49519
3.44481
3.39679
3.35389
3.3199
3.29518
3.26737
3.22812
3.17134
3.09249
3.02873
2.99669
2.98073
2.98454
2.99254
2.9934
2.98593
3.01029
4.31329
4.1093
3.72926
3.4894
3.5688
3.59346
3.50707
3.46824
3.49437
3.54354
3.6061
3.66296
3.66684
3.64484
3.63936
3.66965
3.72109
3.76964
3.79141
3.79107
3.79766
3.83359
3.9057
3.99733
4.07926
4.13156
4.16561
4.20879
4.28025
4.37935
4.47815
4.54415
4.58269
4.6189
4.67147
4.74395
4.80637
4.82838
4.83204
4.84533
4.87099
4.88915
4.88067
4.85773
4.84237
4.84295
4.85107
4.83788
4.79835
4.75721
4.72524
4.70054
4.66395
4.62101
4.56856
4.51706
4.47532
4.43653
4.39475
4.34782
4.30026
4.25824
4.22135
4.18124
4.13797
4.09293
4.04092
3.98316
3.93385
3.89252
3.84955
3.80425
3.75641
3.70161
3.64389
3.59909
3.56405
3.53168
3.49282
3.45169
3.40185
3.3407
3.29303
3.26257
3.2392
3.21317
3.17632
3.1246
3.05555
2.99887
2.97201
2.96283
2.97199
2.99323
3.00834
3.06485
4.73276
4.43927
4.06879
3.68392
3.72443
3.72501
3.56914
3.53768
3.60712
3.67386
3.6567
3.7053
3.72341
3.69582
3.65671
3.6457
3.67937
3.75234
3.8311
3.87234
3.87517
3.87359
3.89501
3.95951
4.06252
4.16096
4.21678
4.24077
4.26834
4.32717
4.42608
4.52522
4.58016
4.60009
4.61791
4.65997
4.73404
4.78773
4.80475
4.81559
4.82694
4.84563
4.86293
4.86555
4.85256
4.83953
4.83378
4.82338
4.80222
4.78036
4.75301
4.71238
4.66805
4.61694
4.56095
4.51981
4.48245
4.437
4.3892
4.34333
4.29756
4.25313
4.21427
4.17625
4.13534
4.0913
4.0424
3.98921
3.93717
3.88861
3.84281
3.79858
3.75286
3.70238
3.65008
3.60568
3.56944
3.53432
3.4988
3.46117
3.41538
3.35704
3.29818
3.25407
3.21867
3.18514
3.15146
3.1131
3.06094
3.00182
2.97061
2.95878
2.95944
2.97348
3.00572
3.10121
5.04003
4.67023
4.3246
3.88887
3.74238
3.74748
3.67404
3.69958
3.91228
4.18819
4.0261
3.86249
3.81727
3.79632
3.76817
3.72704
3.69606
3.71331
3.7904
3.88776
3.93074
3.92475
3.91565
3.93869
4.01758
4.12525
4.19672
4.21857
4.23083
4.25882
4.33129
4.44446
4.51997
4.55211
4.57761
4.62251
4.7044
4.78044
4.79415
4.79249
4.80473
4.84307
4.88033
4.86985
4.83061
4.79285
4.78018
4.78473
4.77376
4.74053
4.68858
4.63322
4.59006
4.55983
4.54649
4.53133
4.49843
4.4552
4.40173
4.33814
4.2788
4.23253
4.19254
4.15314
4.11307
4.06958
4.01938
3.96337
3.90852
3.8616
3.82162
3.78373
3.74351
3.69768
3.64563
3.59471
3.5532
3.51866
3.48634
3.45241
3.412
3.3576
3.28751
3.22798
3.19226
3.16502
3.13976
3.11344
3.07977
3.02822
2.96513
2.94659
2.94759
2.96946
3.02974
3.19286
5.25712
4.87339
4.5082
4.10905
3.82182
3.82677
3.85615
4.03224
4.49001
4.9921
4.76797
4.37419
4.09995
3.99193
3.93339
3.85849
3.80573
3.79317
3.84298
3.94027
3.977
3.96135
3.95334
3.96638
4.01749
4.10894
4.17851
4.20695
4.23106
4.27095
4.3391
4.44574
4.51424
4.53418
4.55081
4.57822
4.63033
4.67706
4.68457
4.68558
4.7077
4.75224
4.77597
4.76978
4.75139
4.74502
4.75733
4.75093
4.71796
4.66896
4.61169
4.57439
4.54555
4.51237
4.4854
4.46257
4.4353
4.40334
4.3632
4.32037
4.27967
4.23744
4.19492
4.15036
4.10212
4.05106
3.99634
3.93729
3.8812
3.83954
3.80632
3.77287
3.73568
3.69221
3.63965
3.58145
3.53319
3.49881
3.46917
3.43948
3.406
3.36045
3.28998
3.21143
3.16922
3.14618
3.12526
3.10425
3.08238
3.04959
2.99075
2.9483
2.94867
2.98868
3.07755
3.29822
5.40186
5.0088
4.67726
4.30778
4.05599
4.13817
4.35978
4.68661
5.12824
5.57492
5.3378
4.92266
4.52574
4.25402
4.11236
4.01084
3.92562
3.90107
3.92089
3.97906
4.03746
4.04742
4.0456
4.04896
4.07139
4.12343
4.18042
4.20693
4.22881
4.2601
4.30206
4.35907
4.42558
4.45629
4.47572
4.49772
4.53176
4.58046
4.60519
4.61061
4.62124
4.64634
4.66716
4.66998
4.67345
4.68721
4.69367
4.66582
4.62913
4.60206
4.58707
4.58191
4.55436
4.50834
4.45419
4.40715
4.37294
4.34636
4.32135
4.29086
4.24789
4.19982
4.16188
4.1248
4.08697
4.04488
3.99474
3.93352
3.86806
3.82093
3.78858
3.7578
3.72476
3.6862
3.63655
3.57155
3.50708
3.4664
3.4393
3.41468
3.38938
3.35703
3.29952
3.21166
3.15009
3.12385
3.10389
3.08453
3.06904
3.05083
3.02219
2.98168
2.98267
3.05102
3.16989
3.40222
5.50181
5.12236
4.86606
4.63739
4.60301
4.79662
5.1258
5.3395
5.57247
5.93078
5.7806
5.40093
4.99528
4.61622
4.36587
4.24052
4.13913
4.04851
4.00933
4.02858
4.08748
4.10678
4.0999
4.07785
4.08007
4.10327
4.14878
4.17209
4.18342
4.20243
4.23147
4.27127
4.32857
4.37733
4.40321
4.428
4.457
4.49916
4.54163
4.55605
4.55954
4.5672
4.57784
4.58977
4.61016
4.63334
4.62439
4.58382
4.55168
4.54223
4.55033
4.57132
4.54964
4.49653
4.42224
4.37112
4.34214
4.32407
4.30601
4.27521
4.22467
4.14685
4.09903
4.07652
4.05369
4.02553
3.98973
3.93925
3.86856
3.80317
3.76603
3.73877
3.71149
3.67983
3.63918
3.58073
3.50037
3.44619
3.42476
3.40599
3.38315
3.35161
3.30326
3.22728
3.14794
3.11165
3.09614
3.08597
3.07304
3.05766
3.04957
3.03517
3.06456
3.17403
3.31367
3.49349
5.59871
5.32483
5.29853
5.35466
5.38883
5.51544
5.6695
5.73897
5.8733
6.18496
6.08539
5.74666
5.38523
5.03405
4.69263
4.50464
4.39716
4.26747
4.15475
4.12341
4.14878
4.16057
4.13541
4.09647
4.08142
4.08917
4.11566
4.13111
4.13804
4.14453
4.15697
4.1803
4.22847
4.2914
4.32732
4.35531
4.38492
4.42074
4.472
4.50546
4.51132
4.50246
4.50351
4.51716
4.54717
4.5739
4.56228
4.5203
4.47796
4.47178
4.48848
4.52037
4.50971
4.46618
4.38795
4.32685
4.303
4.29825
4.29391
4.26109
4.21285
4.12826
4.04611
4.01356
3.99396
3.98257
3.96326
3.93337
3.87993
3.79428
3.7291
3.70077
3.67905
3.65599
3.62864
3.59107
3.52964
3.45082
3.39151
3.35939
3.33426
3.30968
3.28298
3.24653
3.19301
3.12614
3.07419
3.04973
3.03647
3.04001
3.07088
3.11824
3.23833
3.40389
3.49926
3.56288
5.84481
5.88536
6.1258
6.15228
6.02328
6.01232
6.04236
6.04661
6.14567
6.41831
6.3426
6.04615
5.69538
5.40505
5.08642
4.78434
4.62473
4.51525
4.37492
4.26002
4.22713
4.2285
4.19488
4.14552
4.11136
4.10422
4.11508
4.11818
4.11545
4.11668
4.12232
4.1373
4.16234
4.20531
4.24514
4.27082
4.29867
4.3378
4.39317
4.4469
4.46238
4.45401
4.44084
4.44966
4.47357
4.50061
4.49492
4.46122
4.40993
4.39334
4.40408
4.43341
4.43268
4.40517
4.34673
4.27737
4.25186
4.24553
4.2491
4.22417
4.18657
4.12099
4.01951
3.96037
3.93881
3.92661
3.91824
3.89934
3.86646
3.79889
3.71499
3.66675
3.64124
3.62033
3.60129
3.57776
3.54092
3.4693
3.38023
3.3264
3.29868
3.27835
3.26097
3.24201
3.21284
3.15496
3.07191
3.02794
3.02366
3.04175
3.12044
3.26023
3.49621
3.64069
3.66533
3.62155
6.55033
6.77168
6.91068
6.6706
6.43618
6.33871
6.33569
6.31553
6.38989
6.63245
6.57202
6.31464
5.97872
5.70403
5.45056
5.14143
4.87858
4.74233
4.61816
4.45974
4.34323
4.30968
4.28064
4.22409
4.16774
4.14464
4.1392
4.1216
4.10161
4.09236
4.0866
4.09435
4.11362
4.12754
4.14465
4.16361
4.18806
4.22682
4.28321
4.34498
4.37825
4.38122
4.36412
4.36777
4.3895
4.41765
4.4184
4.39641
4.34715
4.31274
4.31023
4.32632
4.33257
4.3199
4.28829
4.22791
4.18405
4.17369
4.17562
4.15983
4.1344
4.09633
4.02794
3.94271
3.89311
3.87282
3.85784
3.84125
3.82006
3.79013
3.73672
3.66353
3.60811
3.5822
3.56368
3.54506
3.51951
3.47579
3.40139
3.31813
3.27029
3.24883
3.23339
3.21751
3.19596
3.16182
3.09472
3.03586
3.0347
3.08778
3.23149
3.45049
3.70046
3.7688
3.76253
3.68824
7.38281
7.49677
7.35947
7.00322
6.75254
6.62806
6.59975
6.55525
6.60119
6.80829
6.75995
6.53186
6.22562
5.96435
5.74074
5.47688
5.18119
4.9566
4.82138
4.67568
4.51145
4.41732
4.37503
4.31361
4.24107
4.2002
4.17794
4.14729
4.10773
4.08051
4.06548
4.06022
4.0684
4.07397
4.06349
4.0519
4.05632
4.07601
4.12213
4.18341
4.2296
4.24981
4.2471
4.24934
4.27756
4.31055
4.33194
4.32545
4.28856
4.24191
4.22769
4.22914
4.23257
4.224
4.21052
4.18023
4.12652
4.09196
4.08483
4.08336
4.06517
4.04316
4.01297
3.95902
3.88664
3.82965
3.80225
3.78325
3.76674
3.75133
3.72871
3.6854
3.61678
3.55123
3.51785
3.49797
3.47796
3.45215
3.40963
3.34491
3.2721
3.22494
3.2019
3.18297
3.16472
3.1428
3.11441
3.08448
3.10556
3.2305
3.42657
3.62814
3.77632
3.81609
3.80546
3.74537
8.03208
7.92258
7.63887
7.27268
7.05204
6.93981
6.87508
6.80597
6.82336
6.98398
6.92901
6.7127
6.43406
6.19509
5.98082
5.73673
5.46173
5.18455
5.00039
4.87357
4.71603
4.56426
4.48518
4.41227
4.32433
4.26871
4.23386
4.19249
4.14136
4.08943
4.05742
4.03775
4.03033
4.02055
4.0006
3.97531
3.95131
3.93774
3.94809
3.98647
4.03534
4.07337
4.08968
4.0979
4.12928
4.16993
4.20513
4.23136
4.22216
4.17769
4.15492
4.14395
4.14062
4.1403
4.13695
4.12116
4.0913
4.03553
3.98978
3.97105
3.96881
3.97802
3.97102
3.94973
3.90406
3.82851
3.76137
3.73608
3.72295
3.70798
3.69294
3.67397
3.63918
3.56845
3.49347
3.45356
3.43018
3.4085
3.38325
3.3509
3.30126
3.2353
3.17965
3.14187
3.12
3.11105
3.12305
3.15838
3.2779
3.49887
3.65319
3.74149
3.78696
3.8217
3.82064
3.77679
8.39323
8.19097
7.88545
7.54197
7.34465
7.24641
7.15303
7.05969
7.04352
7.1602
7.09512
6.88846
6.62795
6.40738
6.20837
5.96325
5.69813
5.42651
5.19186
5.04773
4.9193
4.75314
4.6095
4.51248
4.42008
4.35176
4.30181
4.25154
4.19111
4.11969
4.07026
4.03536
4.00903
3.98247
3.95583
3.92728
3.88591
3.8565
3.84054
3.83621
3.84703
3.87362
3.89877
3.91267
3.94721
3.9951
4.04249
4.09519
4.11304
4.07964
4.06791
4.07113
4.06929
4.08356
4.07577
4.06334
4.04569
4.00194
3.93343
3.89517
3.88609
3.90211
3.93129
3.92421
3.89312
3.84528
3.7744
3.70427
3.6812
3.68195
3.68559
3.66762
3.63484
3.57798
3.49206
3.43234
3.40753
3.38288
3.3576
3.33255
3.30268
3.25134
3.1748
3.11405
3.09788
3.10496
3.16348
3.29396
3.56704
3.7839
3.82732
3.80705
3.79369
3.80152
3.82415
3.79479
8.65348
8.4302
8.15084
7.81972
7.62295
7.53937
7.44768
7.32004
7.2563
7.33004
7.26957
7.07554
6.82551
6.60941
6.4219
6.18675
5.9142
5.66202
5.42064
5.23284
5.1074
4.9631
4.78266
4.6256
4.53402
4.46326
4.39813
4.33763
4.26676
4.17478
4.10437
4.05584
4.01522
3.97405
3.93509
3.89809
3.85048
3.79845
3.76684
3.74383
3.73138
3.72399
3.72879
3.72855
3.73894
3.7833
3.83232
3.90126
3.96611
3.9651
3.94676
3.97185
3.96806
3.97055
3.99769
4.01604
4.00589
3.96105
3.90112
3.86336
3.83507
3.8228
3.82566
3.83381
3.83902
3.82331
3.78061
3.7152
3.6546
3.62854
3.6154
3.60141
3.58881
3.56509
3.5095
3.42779
3.3559
3.3337
3.32814
3.32299
3.29717
3.24928
3.17767
3.10479
3.09887
3.14676
3.29508
3.55358
3.86072
3.95154
3.93803
3.86475
3.81545
3.80083
3.80702
3.80158
8.94101
8.72087
8.44047
8.08791
7.88095
7.8049
7.72021
7.56793
7.45677
7.50118
7.45945
7.28567
7.03822
6.81458
6.62105
6.40187
6.12858
5.87102
5.65447
5.44611
5.29061
5.15672
4.98653
4.78686
4.65957
4.58697
4.513
4.43709
4.35363
4.24596
4.15149
4.08959
4.04078
3.99332
3.94335
3.89364
3.83537
3.77077
3.71932
3.68844
3.66318
3.64251
3.62333
3.59736
3.56607
3.56691
3.59741
3.64932
3.74128
3.79851
3.79805
3.84449
3.86255
3.85254
3.8841
3.91861
3.91253
3.8873
3.87858
3.85545
3.81713
3.77501
3.75404
3.75112
3.74947
3.74398
3.73602
3.70994
3.65015
3.58662
3.56405
3.5517
3.53564
3.51514
3.49041
3.4292
3.35316
3.31311
3.29409
3.26995
3.23977
3.2128
3.17987
3.13912
3.15263
3.28577
3.53768
3.8343
4.00993
4.02378
4.00114
3.9307
3.85051
3.82077
3.81158
3.806
9.13894
8.94384
8.67503
8.35693
8.18026
8.10165
7.98544
7.78359
7.62837
7.65335
7.63968
7.49201
7.25052
7.01982
6.82194
6.61177
6.3541
6.076
5.87161
5.67222
5.48768
5.3417
5.18216
4.98094
4.80403
4.71165
4.63215
4.54206
4.44337
4.32462
4.20956
4.1349
4.07599
4.02365
3.96892
3.90641
3.83501
3.75076
3.68578
3.64917
3.62213
3.59485
3.5614
3.51677
3.45693
3.40631
3.39934
3.41299
3.46151
3.54996
3.58843
3.61949
3.69566
3.70983
3.7368
3.80376
3.80816
3.80104
3.81276
3.82076
3.80665
3.76168
3.69965
3.67668
3.673
3.67468
3.67192
3.65873
3.62838
3.56465
3.50527
3.48832
3.47604
3.46226
3.44564
3.42564
3.37569
3.30348
3.25421
3.22408
3.19558
3.17928
3.18269
3.21039
3.34429
3.61152
3.84336
3.99267
4.06199
4.05951
4.03287
3.98355
3.90742
3.84205
3.81653
3.80205
9.36473
9.22504
8.93169
8.62192
8.43574
8.34648
8.19747
7.97976
7.83448
7.83387
7.81913
7.66885
7.41847
7.17501
6.97558
6.77619
6.54573
6.27108
6.05814
5.8839
5.68821
5.51249
5.35298
5.16738
4.96584
4.83189
4.74046
4.64635
4.53882
4.41042
4.27572
4.18496
4.11824
4.0589
4.00331
3.93626
3.84903
3.75197
3.67369
3.62905
3.59488
3.55992
3.52021
3.47146
3.4067
3.33133
3.2893
3.27756
3.27957
3.30403
3.34629
3.36549
3.42615
3.48654
3.51994
3.60888
3.66924
3.6902
3.72552
3.75777
3.7599
3.73461
3.67583
3.62142
3.60835
3.60606
3.61124
3.60697
3.58977
3.55208
3.48306
3.43026
3.41576
3.40643
3.40037
3.38463
3.35937
3.3039
3.23176
3.17671
3.15638
3.1655
3.21741
3.38029
3.72832
3.97771
4.04801
4.07303
4.09288
4.09351
4.0635
4.02497
3.96782
3.8868
3.84334
3.83473
9.63248
9.40168
9.13059
8.88502
8.70271
8.5952
8.41443
8.19017
8.02579
7.99743
7.97082
7.81547
7.5713
7.33857
7.15069
6.95168
6.72311
6.4609
6.2178
6.04664
5.86945
5.67643
5.48449
5.30234
5.12453
4.97363
4.84511
4.73468
4.62184
4.49139
4.35684
4.25275
4.1728
4.10119
4.03375
3.96018
3.87239
3.76697
3.68206
3.6317
3.58428
3.53628
3.48855
3.43743
3.37728
3.3046
3.24301
3.20744
3.18453
3.16824
3.15899
3.15156
3.17189
3.22937
3.27352
3.33849
3.43298
3.50972
3.578
3.64618
3.68698
3.68908
3.65708
3.59341
3.55365
3.54263
3.54374
3.55334
3.55059
3.5331
3.48642
3.41113
3.36714
3.35374
3.34563
3.34398
3.32728
3.29865
3.23124
3.15976
3.15435
3.19334
3.36209
3.7263
4.08888
4.18623
4.15556
4.1113
4.09694
4.09653
4.08053
4.05431
4.01795
3.95881
3.90501
3.90296
9.71947
9.51253
9.27958
9.0569
8.88882
8.75411
8.58342
8.39563
8.23943
8.18291
8.12989
7.95049
7.69469
7.45111
7.25764
7.10403
6.90716
6.66285
6.42344
6.24663
6.0724
5.88424
5.68542
5.48486
5.31929
5.1661
5.01595
4.85803
4.71483
4.59979
4.49165
4.38038
4.28241
4.19511
4.10705
4.01718
3.92712
3.83375
3.73543
3.64882
3.57712
3.51656
3.46122
3.40377
3.33754
3.26932
3.21433
3.17102
3.13107
3.09036
3.04713
3.01456
3.00863
3.0266
3.05333
3.08876
3.15364
3.23295
3.33433
3.43663
3.53961
3.61197
3.62034
3.58249
3.52489
3.49835
3.48847
3.49684
3.51005
3.5049
3.48005
3.42138
3.34423
3.30804
3.29513
3.29202
3.29162
3.26302
3.21957
3.18065
3.19408
3.34134
3.68022
4.06954
4.25919
4.26843
4.21639
4.13048
4.0952
4.07707
4.07794
4.08049
4.06607
4.03845
4.00654
4.02051
9.79343
9.60273
9.41417
9.24238
9.09299
8.92272
8.72294
8.5287
8.3749
8.29331
8.19753
8.01309
7.79107
7.5811
7.39584
7.2392
7.03543
6.79146
6.53872
6.34924
6.17763
5.9852
5.79321
5.60194
5.41084
5.24273
5.09471
4.95831
4.82106
4.68125
4.54107
4.41009
4.29408
4.19349
4.10312
4.01445
3.92415
3.83845
3.7562
3.67371
3.59553
3.52238
3.45169
3.38136
3.31106
3.25068
3.20049
3.15302
3.10053
3.03775
2.97328
2.93781
2.91727
2.90597
2.9034
2.90849
2.93427
2.96943
3.03717
3.14902
3.27342
3.40426
3.52226
3.54201
3.51977
3.47875
3.45653
3.45067
3.45933
3.46542
3.45139
3.42076
3.35878
3.29002
3.2633
3.25203
3.24718
3.2266
3.21398
3.22534
3.34879
3.70151
4.04075
4.26761
4.33009
4.30715
4.24488
4.15741
4.10014
4.08132
4.07722
4.09976
4.12885
4.13113
4.12092
4.1462
9.86125
9.69062
9.5154
9.34519
9.1741
8.98862
8.80678
8.65042
8.53094
8.43752
8.29877
8.10837
7.90465
7.70023
7.51085
7.33499
7.13319
6.90006
6.66063
6.46901
6.30733
6.12162
5.92464
5.73019
5.53674
5.35629
5.20042
5.05907
4.92093
4.78031
4.63709
4.49586
4.36531
4.25078
4.14881
4.05353
3.96169
3.87201
3.78388
3.69617
3.608
3.51994
3.43589
3.3609
3.29753
3.246
3.19624
3.14124
3.07588
3.00026
2.93492
2.88867
2.85317
2.82916
2.80956
2.79783
2.79608
2.79858
2.80175
2.85023
2.95784
3.1038
3.27085
3.40819
3.46038
3.46416
3.44303
3.42358
3.41684
3.42049
3.42183
3.4052
3.37387
3.31498
3.25361
3.22423
3.20332
3.19666
3.23787
3.35827
3.76161
4.12691
4.26863
4.31438
4.32297
4.29037
4.2511
4.20001
4.14479
4.1274
4.12318
4.14241
4.2019
4.24651
4.24974
4.26519
9.88984
9.72728
9.568
9.40759
9.2351
9.06525
8.90389
8.75778
8.62782
8.48887
8.32711
8.14899
7.96569
7.7832
7.61673
7.44865
7.2434
7.00471
6.77152
6.5797
6.41622
6.23716
6.03982
5.83745
5.64081
5.45517
5.29193
5.14475
5.0021
4.85881
4.7129
4.56638
4.42821
4.30318
4.18905
4.08429
3.98675
3.89278
3.79973
3.7064
3.61206
3.51875
3.43231
3.35762
3.29643
3.24157
3.18376
3.11877
3.04713
2.97886
2.9196
2.86173
2.80894
2.77323
2.7484
2.72814
2.71201
2.696
2.67623
2.6623
2.69237
2.78807
2.94728
3.1552
3.26685
3.36586
3.41382
3.39853
3.37957
3.38053
3.39109
3.39413
3.37601
3.344
3.27615
3.20337
3.17914
3.20246
3.30195
3.72036
4.24028
4.38289
4.34833
4.31819
4.3025
4.28513
4.26576
4.24026
4.20253
4.18721
4.19382
4.22551
4.29806
4.36545
4.37383
4.35203
9.923
9.77033
9.61685
9.45988
9.29881
9.14441
8.99495
8.84985
8.70139
8.53792
8.37269
8.20359
8.03149
7.86374
7.69889
7.51137
7.29033
7.05908
6.8479
6.67221
6.51777
6.34152
6.14161
5.92514
5.72656
5.54693
5.38035
5.22588
5.07724
4.92861
4.77719
4.62677
4.48577
4.35625
4.23458
4.11858
4.00775
3.90255
3.80181
3.70515
3.61296
3.52546
3.44198
3.36156
3.28777
3.22138
3.15703
3.0923
3.03035
2.97483
2.91999
2.85894
2.79349
2.73895
2.70572
2.68367
2.66423
2.64611
2.62512
2.59375
2.57115
2.59055
2.66192
2.81239
3.00922
3.13017
3.26653
3.34302
3.33893
3.33934
3.34865
3.36683
3.36909
3.348
3.29936
3.21176
3.19285
3.25668
3.60773
4.22547
4.49203
4.48151
4.39459
4.3439
4.31683
4.30776
4.30764
4.29602
4.27856
4.27193
4.29408
4.33221
4.3929
4.44699
4.45308
4.41412
9.95662
9.80711
9.65437
9.49782
9.34304
9.1924
9.04424
8.89803
8.74193
8.57849
8.41526
8.2532
8.09271
7.93112
7.75468
7.5534
7.33664
7.12248
6.93101
6.77117
6.60694
6.41495
6.19957
5.97967
5.79773
5.6298
5.46492
5.30472
5.14548
4.98174
4.81872
4.6674
4.52972
4.40098
4.27645
4.15315
4.03106
3.91395
3.80578
3.70796
3.61933
3.53756
3.45664
3.37095
3.28201
3.19897
3.13196
3.07635
3.02569
2.97635
2.92314
2.86337
2.79509
2.72471
2.67353
2.64716
2.62686
2.60802
2.58736
2.56166
2.52052
2.48123
2.48568
2.53302
2.66355
2.84232
2.99332
3.17996
3.27809
3.28134
3.29292
3.30954
3.33429
3.32956
3.29546
3.24524
3.26225
3.5265
4.12806
4.54209
4.57483
4.52689
4.43318
4.37656
4.35808
4.34769
4.36634
4.39654
4.41181
4.42743
4.42676
4.4346
4.45884
4.48191
4.48355
4.44011
9.98919
9.8407
9.69025
9.53719
9.38556
9.23468
9.08398
8.92991
8.76923
8.60861
8.44984
8.29237
8.13579
7.97136
7.7875
7.58708
7.38087
7.18382
7.01011
6.85086
6.66125
6.44882
6.22248
6.03145
5.87038
5.71023
5.54663
5.37875
5.1972
5.01093
4.84404
4.69845
4.56565
4.44033
4.31695
4.18935
4.05644
3.92595
3.81066
3.71324
3.62788
3.54987
3.47279
3.38769
3.28832
3.18647
3.11098
3.06302
3.02438
2.98605
2.9404
2.87769
2.79816
2.71919
2.65817
2.61777
2.59342
2.57099
2.54745
2.52026
2.47563
2.42396
2.39347
2.39277
2.42924
2.54279
2.69588
2.88092
3.09297
3.19435
3.20691
3.23454
3.27159
3.28642
3.27289
3.28673
3.4775
4.04501
4.52695
4.64847
4.62191
4.56398
4.4837
4.43192
4.41838
4.44448
4.51051
4.55892
4.58202
4.58132
4.56546
4.54074
4.51993
4.50436
4.48777
4.4392
10.0199
9.87139
9.72338
9.57283
9.42181
9.26924
9.11519
8.95649
8.79681
8.63951
8.48429
8.32927
8.16899
7.99316
7.80344
7.60817
7.41645
7.23805
7.07979
6.90028
6.69063
6.46403
6.25386
6.08237
5.93139
5.77491
5.60765
5.42543
5.22501
5.03223
4.87119
4.73158
4.60061
4.47432
4.35203
4.22571
4.08284
3.93785
3.81769
3.72214
3.63871
3.55892
3.47942
3.39503
3.29626
3.19297
3.11113
3.05279
3.00766
2.965
2.9201
2.86537
2.79462
2.7214
2.65874
2.60535
2.56262
2.53376
2.50726
2.4781
2.44202
2.39813
2.35397
2.32287
2.31825
2.34711
2.43358
2.56887
2.75934
2.97724
3.07787
3.1334
3.18957
3.22288
3.25156
3.3972
3.92755
4.49976
4.70246
4.71312
4.67099
4.61414
4.575
4.56762
4.57508
4.60378
4.6361
4.66287
4.68328
4.67585
4.65448
4.61455
4.56771
4.52429
4.48617
4.42638
10.0465
9.89729
9.75022
9.6001
9.44805
9.29339
9.13649
8.97694
8.81998
8.6666
8.51491
8.35936
8.19147
8.00783
7.81762
7.63004
7.45067
7.28461
7.12386
6.92789
6.71165
6.49304
6.30396
6.13531
5.97911
5.81367
5.63736
5.44568
5.2467
5.06512
4.90801
4.76728
4.63915
4.51769
4.39024
4.24592
4.09546
3.95437
3.83027
3.72684
3.64673
3.57749
3.50259
3.41244
3.30939
3.2081
3.12018
3.04724
2.99105
2.94747
2.90308
2.85268
2.7939
2.72713
2.6647
2.60387
2.54914
2.50597
2.47177
2.44005
2.40994
2.37793
2.34596
2.3111
2.27088
2.2616
2.27801
2.33573
2.45252
2.63355
2.84786
2.99944
3.08739
3.15033
3.27036
3.69903
4.36671
4.74353
4.79898
4.77909
4.73482
4.71032
4.7116
4.73431
4.75268
4.75277
4.73919
4.73703
4.74114
4.72353
4.69221
4.6503
4.59506
4.54268
4.4919
4.41832
10.0694
9.92064
9.77404
9.62387
9.47142
9.31674
9.16028
9.00319
8.84755
8.69258
8.53629
8.3742
8.20273
8.02354
7.84179
7.66166
7.48778
7.32198
7.14174
6.93968
6.73082
6.5358
6.35577
6.18552
6.01147
5.83264
5.64394
5.45004
5.26816
5.10585
4.95638
4.81332
4.67478
4.53477
4.3876
4.23833
4.10012
3.97812
3.8666
3.75925
3.65384
3.55839
3.46922
3.37929
3.29777
3.22505
3.14967
3.07198
2.99118
2.91984
2.8633
2.81097
2.7645
2.72553
2.68006
2.62249
2.55674
2.49163
2.44446
2.41162
2.38496
2.36497
2.34389
2.31269
2.2646
2.21297
2.20143
2.20859
2.25805
2.36378
2.54494
2.78201
2.97675
3.12575
3.44306
4.08447
4.62409
4.8484
4.86257
4.84244
4.81928
4.81724
4.84272
4.88754
4.89842
4.87715
4.83492
4.80823
4.77652
4.73848
4.69574
4.65232
4.60661
4.5576
4.50282
4.41628
10.079
9.93115
9.78497
9.63519
9.48317
9.3292
9.1738
9.01832
8.86259
8.70519
8.54411
8.37777
8.20696
8.03456
7.86176
7.68809
7.5143
7.33641
7.13755
6.93366
6.74409
6.56859
6.40056
6.21975
6.03192
5.83431
5.63991
5.45978
5.29628
5.14542
4.99932
4.85106
4.69249
4.52756
4.37202
4.23318
4.1104
4.00305
3.9027
3.80027
3.68755
3.56103
3.44644
3.35554
3.27972
3.21537
3.1575
3.09291
3.01144
2.9164
2.83948
2.78519
2.74004
2.69919
2.66244
2.62426
2.56952
2.49486
2.43528
2.39715
2.36688
2.34384
2.32349
2.30115
2.26529
2.2051
2.17466
2.17074
2.18195
2.23363
2.34391
2.53848
2.82492
3.16836
3.72677
4.36032
4.76539
4.92576
4.94081
4.94135
4.93412
4.92564
4.93522
4.96703
4.97422
4.94867
4.9038
4.84886
4.78885
4.73446
4.68662
4.64333
4.60401
4.56322
4.51495
4.41748
10.0873
9.94028
9.79392
9.64393
9.49189
9.33823
9.18357
9.02808
8.87041
8.70935
8.54468
8.37801
8.21207
8.04866
7.88536
7.7175
7.5358
7.33623
7.13254
6.93839
6.76094
6.60063
6.42844
6.23868
6.03986
5.8288
5.63484
5.47201
5.32097
5.17458
5.02823
4.87137
4.69528
4.51124
4.35067
4.22649
4.12502
4.03132
3.9354
3.82469
3.68775
3.5377
3.4112
3.32844
3.27007
3.21887
3.16768
3.10534
3.01291
2.89541
2.80529
2.75584
2.72175
2.69245
2.66342
2.62827
2.56999
2.48343
2.41503
2.38232
2.35986
2.33908
2.31777
2.29279
2.25377
2.1912
2.15511
2.14273
2.14283
2.16664
2.23471
2.38303
2.69097
3.216
3.93725
4.52926
4.84374
4.9892
5.02624
5.03806
5.03083
5.02321
5.02668
5.05278
5.06182
5.02889
4.96506
4.8756
4.79367
4.72635
4.67715
4.63461
4.59688
4.55889
4.51852
4.41792
)
;

boundaryField
{
    inlet
    {
        type            fixedValue;
        value           uniform 1;
    }
    outlet
    {
        type            zeroGradient;
    }
    bottom
    {
        type            symmetryPlane;
    }
    top
    {
        type            symmetryPlane;
    }
    obstacle
    {
        type            zeroGradient;
    }
    defaultFaces
    {
        type            empty;
    }
}


// ************************************************************************* //
