/*--------------------------------*- C++ -*----------------------------------*\
  =========                 |
  \\      /  F ield         | OpenFOAM: The Open Source CFD Toolbox
   \\    /   O peration     | Website:  https://openfoam.org
    \\  /    A nd           | Version:  7
     \\/     M anipulation  |
\*---------------------------------------------------------------------------*/
FoamFile
{
    version     2.0;
    format      ascii;
    class       volScalarField;
    location    "14.5";
    object      rho;
}
// * * * * * * * * * * * * * * * * * * * * * * * * * * * * * * * * * * * * * //

dimensions      [1 -3 0 0 0 0 0];

internalField   nonuniform List<scalar> 
4032
(
1.40001
1.40001
1.40001
1.40001
1.40001
1.40001
1.40001
1.40001
1.40001
1.40001
1.40001
1.4586
4.12771
5.45579
5.50937
5.58109
5.64749
5.71094
5.77068
5.82582
5.87499
5.91412
5.9432
5.96361
1.40001
1.40001
1.40001
1.40001
1.40001
1.40001
1.40001
1.40001
1.40001
1.40001
1.40001
1.43066
4.06834
5.44223
5.50005
5.57103
5.63744
5.70025
5.75909
5.81278
5.85974
5.89586
5.9212
5.93895
1.40001
1.40001
1.40001
1.40001
1.40001
1.40001
1.40001
1.40001
1.40001
1.40001
1.40001
1.40215
3.93339
5.42137
5.48107
5.54964
5.61509
5.67608
5.73314
5.78531
5.8316
5.86804
5.89344
5.91281
1.40001
1.40001
1.40001
1.40001
1.40001
1.40001
1.40001
1.40001
1.40001
1.40001
1.40001
1.40003
3.7181
5.38123
5.4527
5.51802
5.5826
5.64152
5.69674
5.74714
5.7914
5.82427
5.84396
5.8568
1.40001
1.40001
1.40001
1.40001
1.40001
1.40001
1.40001
1.40001
1.40001
1.40001
1.40001
1.40001
3.42955
5.31861
5.41923
5.48048
5.54261
5.59685
5.64601
5.68869
5.72457
5.75247
5.77031
5.79124
1.40001
1.40001
1.40001
1.40001
1.40001
1.40001
1.40001
1.40001
1.40001
1.40001
1.40001
1.40001
3.07306
5.22365
5.38633
5.43997
5.49446
5.53998
5.58065
5.61651
5.64737
5.6725
5.68442
5.67642
1.40001
1.40001
1.40001
1.40001
1.40001
1.40001
1.40001
1.40001
1.40001
1.40001
1.40001
1.40001
2.66262
5.08864
5.38064
5.41711
5.45693
5.48701
5.50981
5.5282
5.53546
5.52214
5.50448
5.49737
1.40001
1.40001
1.40001
1.40001
1.40001
1.40001
1.40001
1.40001
1.40001
1.40001
1.40001
1.40001
2.19475
4.89293
5.40325
5.40527
5.42419
5.43535
5.43703
5.43257
5.40994
5.37572
5.31455
5.27486
1.40001
1.40001
1.40001
1.40001
1.40001
1.40001
1.40001
1.40001
1.40001
1.40001
1.40001
1.40001
1.7054
4.61217
5.44318
5.39289
5.39584
5.38332
5.35971
5.32674
5.26339
5.15505
4.83894
3.87657
1.40001
1.40001
1.40001
1.40001
1.40001
1.40001
1.40001
1.40001
1.40001
1.40001
1.40001
1.40001
1.42399
4.03973
5.34035
5.3058
5.32403
5.31005
5.27249
5.21148
5.10643
4.91152
4.57995
3.64275
1.40001
1.40001
1.40001
1.40001
1.40001
1.40001
1.40001
1.40001
1.40001
1.40001
1.40001
1.40001
1.39999
3.25778
5.11372
5.26382
5.28152
5.25191
5.19641
5.10503
4.96779
4.73122
4.38892
3.55537
1.40001
1.40001
1.40001
1.40001
1.40001
1.40001
1.40001
1.40001
1.40001
1.40001
1.40001
1.40001
1.4
2.42816
4.86801
5.22486
5.21008
5.18422
5.12339
5.01129
4.84605
4.60136
4.22572
3.55896
1.40001
1.40001
1.40001
1.40001
1.40001
1.40001
1.40001
1.40001
1.40001
1.40001
1.40001
1.40001
1.4
1.65983
4.53476
5.28372
5.17419
5.10833
5.0347
4.91316
4.73843
4.50077
4.10747
3.59245
1.40001
1.40001
1.40001
1.40001
1.40001
1.40001
1.40001
1.40001
1.40001
1.40001
1.40001
1.40001
1.4
1.41169
3.73401
5.03258
5.0392
5.01763
4.94408
4.82361
4.65184
4.40547
4.04657
3.62848
1.40001
1.40001
1.40001
1.40001
1.40001
1.40001
1.40001
1.40001
1.40001
1.40001
1.40001
1.40001
1.40001
1.39987
2.62359
4.80542
5.02406
4.98605
4.89463
4.75758
4.58834
4.34029
4.02837
3.67893
1.40001
1.40001
1.40001
1.40001
1.40001
1.40001
1.40001
1.40001
1.40001
1.40001
1.40001
1.40001
1.40001
1.39997
1.66239
4.40535
5.08624
4.95996
4.84074
4.68758
4.51718
4.28403
4.01408
3.71569
1.40001
1.40001
1.40001
1.40001
1.40001
1.40001
1.40001
1.40001
1.40001
1.40001
1.40001
1.40001
1.40001
1.4
1.40935
3.40169
4.89581
4.87218
4.77572
4.63634
4.46365
4.25022
4.00963
3.74702
1.40001
1.40001
1.40001
1.40001
1.40001
1.40001
1.40001
1.40001
1.40001
1.40001
1.40001
1.40001
1.40001
1.4
1.39994
2.10483
4.68196
4.90677
4.7684
4.61686
4.43819
4.23208
4.00718
3.77182
1.40001
1.40001
1.40001
1.40001
1.40001
1.40001
1.40001
1.40001
1.40001
1.40001
1.40001
1.40001
1.40001
1.40001
1.39999
1.47793
3.78626
4.84469
4.71802
4.58744
4.41422
4.21903
4.01436
3.81807
1.40001
1.40001
1.40001
1.40001
1.40001
1.40001
1.40001
1.40001
1.40001
1.40001
1.40001
1.40001
1.40001
1.40001
1.4
1.40046
2.36093
4.59318
4.73325
4.59938
4.42156
4.23535
4.07997
3.99295
1.40001
1.40001
1.40001
1.40001
1.40001
1.40001
1.40001
1.40001
1.40001
1.40001
1.40001
1.40001
1.40001
1.40001
1.4
1.4
1.53785
3.75436
4.74433
4.57404
4.42051
4.29786
4.27927
4.35768
1.40001
1.40001
1.40001
1.40001
1.40001
1.40001
1.40001
1.40001
1.40001
1.40001
1.40001
1.40001
1.40001
1.40001
1.40001
1.4
1.40206
2.27597
4.46219
4.52681
4.47016
4.53011
4.69215
4.77238
1.40001
1.40001
1.40001
1.40001
1.40001
1.40001
1.40001
1.40001
1.40001
1.40001
1.40001
1.40001
1.40001
1.40001
1.40001
1.40001
1.40001
1.50747
3.43841
4.55502
4.80237
5.01778
5.15168
5.06642
1.40001
1.40001
1.40001
1.40001
1.40001
1.40001
1.40001
1.40001
1.40001
1.40001
1.40001
1.40001
1.40001
1.40001
1.40001
1.40001
1.40001
1.40162
2.01956
4.23886
5.40492
5.49642
5.46852
5.26235
1.40001
1.40001
1.40001
1.40001
1.40001
1.40001
1.40001
1.40001
1.40001
1.40001
1.40001
1.40001
1.40001
1.40001
1.40001
1.40001
1.40001
1.40001
1.44919
3.6033
5.76457
5.7884
5.61738
5.40697
1.40001
1.40001
1.40001
1.40001
1.40001
1.40001
1.40001
1.40001
1.40001
1.40001
1.40001
1.40001
1.40001
1.40001
1.40001
1.40001
1.40001
1.40001
1.40046
2.83671
5.66753
5.80065
5.63938
5.47711
1.40001
1.40001
1.40001
1.40001
1.40001
1.40001
1.40001
1.40001
1.40001
1.40001
1.40001
1.40001
1.40001
1.40001
1.40001
1.40001
1.40001
1.40001
1.40001
2.47368
5.26851
5.57111
5.44619
5.39387
1.40001
1.40001
1.40001
1.40001
1.40001
1.40001
1.40001
1.40001
1.40001
1.40001
1.40001
1.40001
1.40001
1.40001
1.40001
1.40001
1.40001
1.40001
1.40001
2.23197
4.90333
5.42996
5.33316
5.33087
1.40001
1.40001
1.40001
1.40001
1.40001
1.40001
1.40001
1.40001
1.40001
1.40001
1.40001
1.40001
1.40001
1.40001
1.40001
1.40001
1.40001
1.40001
1.40001
1.9646
4.73559
5.40736
5.28858
5.25604
1.40001
1.40001
1.40001
1.40001
1.40001
1.40001
1.40001
1.40001
1.40001
1.40001
1.40001
1.40001
1.40001
1.40001
1.40001
1.40001
1.40001
1.40001
1.40001
1.71929
4.59351
5.41966
5.30362
5.25181
1.40001
1.40001
1.40001
1.40001
1.40001
1.40001
1.40001
1.40001
1.40001
1.40001
1.40001
1.40001
1.40001
1.40001
1.40001
1.40001
1.40001
1.40001
1.40001
1.51987
4.36513
5.4302
5.32532
5.26768
1.40001
1.40001
1.40001
1.40001
1.40001
1.40001
1.40001
1.40001
1.40001
1.40001
1.40001
1.40001
1.40001
1.40001
1.40001
1.40001
1.40001
1.40001
1.40001
1.40613
4.12286
5.41923
5.34654
5.28428
1.40001
1.40001
1.40001
1.40001
1.40001
1.40001
1.40001
1.40001
1.40001
1.40001
1.40001
1.40001
1.40001
1.40001
1.40001
1.40001
1.40001
1.40001
1.40001
1.40005
3.85569
5.3875
5.36397
5.29643
1.40001
1.40001
1.40001
1.40001
1.40001
1.40001
1.40001
1.40001
1.40001
1.40001
1.40001
1.40001
1.40001
1.40001
1.40001
1.40001
1.40001
1.40001
1.40001
1.40001
3.61783
5.3692
5.38448
5.30756
1.40001
1.40001
1.40001
1.40001
1.40001
1.40001
1.40001
1.40001
1.40001
1.40001
1.40001
1.40001
1.40001
1.40001
1.40001
1.40001
1.40001
1.40001
1.40001
1.40001
3.40195
5.35855
5.40243
5.3196
1.40001
1.40001
1.40001
1.40001
1.40001
1.40001
1.40001
1.40001
1.40001
1.40001
1.40001
1.40001
1.40001
1.40001
1.40001
1.40001
1.40001
1.40001
1.40001
1.40001
3.21965
5.337
5.41648
5.32997
1.40001
1.40001
1.40001
1.40001
1.40001
1.40001
1.40001
1.40001
1.40001
1.40001
1.40001
1.40001
1.40001
1.40001
1.40001
1.40001
1.40001
1.40001
1.40001
1.40001
3.07655
5.30785
5.42467
5.33669
1.40001
1.40001
1.40001
1.40001
1.40001
1.40001
1.40001
1.40001
1.40001
1.40001
1.40001
1.40001
1.40001
1.40001
1.40001
1.40001
1.40001
1.40001
1.40001
1.40001
2.96915
5.28288
5.42963
5.34129
1.40001
1.40001
1.40001
1.40001
1.40001
1.40001
1.40001
1.40001
1.40001
1.40001
1.40001
1.40001
1.40001
1.40001
1.40001
1.40001
1.40001
1.40001
1.40001
1.40001
2.8995
5.26123
5.43059
5.34256
1.40001
1.40001
1.40001
1.40001
1.40001
1.40001
1.40001
1.40001
1.40001
1.40001
1.40001
1.40001
1.40001
1.40001
1.40001
1.40001
1.40001
1.40001
1.40001
1.40001
2.87048
5.24264
5.42851
5.34367
1.45589
1.46409
1.59003
1.74016
1.80331
1.83418
1.84139
1.84364
1.84553
1.85331
1.85931
1.86638
1.87058
1.87035
1.87012
1.87451
1.89149
1.91538
1.94185
1.96094
1.97382
1.98485
2.00079
2.02367
2.05531
2.09218
2.13013
2.16504
2.19553
2.222
2.24563
2.26894
2.2935
2.31995
2.34842
2.37837
2.4077
2.43234
2.44994
2.46125
2.46771
2.47118
2.47318
2.47387
2.473
2.47148
2.4712
2.47384
2.47773
2.47991
2.47868
2.47386
2.46626
2.45647
2.44433
2.42968
2.41356
2.39808
2.38457
2.37267
2.36098
2.34855
2.33566
2.32358
2.3132
2.30377
2.29349
2.28018
2.26299
2.24385
2.22564
2.21049
2.19894
2.18965
2.17931
2.16523
2.14736
2.12856
2.11199
2.09914
2.09029
2.08126
2.06316
2.04169
2.02196
2.00655
1.99842
1.99951
2.00199
1.98915
1.97023
1.94564
1.92342
1.91511
1.91524
1.95909
2.15969
2.07128
1.91213
1.85828
1.87282
1.87475
1.86833
1.86168
1.85391
1.85452
1.86106
1.87219
1.88525
1.89448
1.90121
1.90605
1.918
1.9347
1.95757
1.9794
1.99654
2.00965
2.02051
2.03464
2.0569
2.08812
2.12493
2.16222
2.1957
2.22446
2.25135
2.27944
2.31013
2.34128
2.36923
2.39277
2.41427
2.43651
2.45886
2.47737
2.48843
2.49367
2.49753
2.50257
2.50751
2.50926
2.50598
2.50024
2.49631
2.49464
2.49167
2.48354
2.47093
2.45745
2.44558
2.43446
2.4216
2.40696
2.39267
2.38047
2.37039
2.36085
2.3494
2.33577
2.32189
2.30943
2.29902
2.28929
2.27737
2.2607
2.24134
2.22229
2.20551
2.19293
2.18432
2.17669
2.16583
2.14941
2.131
2.1143
2.1012
2.09183
2.08075
2.0633
2.04244
2.0205
2.00377
1.99271
1.98635
1.98393
1.97628
1.96321
1.94878
1.93435
1.93155
1.96208
2.60437
2.45172
2.18055
1.97159
1.92934
1.92236
1.90671
1.88082
1.86667
1.86952
1.88426
1.9027
1.91755
1.92808
1.93935
1.95066
1.96265
1.97279
1.98374
1.99899
2.02009
2.04472
2.06978
2.09335
2.11554
2.14052
2.17212
2.21139
2.25447
2.29426
2.32681
2.35534
2.3873
2.42632
2.46907
2.50795
2.53513
2.55344
2.57115
2.59009
2.60476
2.60956
2.60777
2.60669
2.61075
2.61831
2.62224
2.61742
2.60836
2.59987
2.59341
2.58533
2.56953
2.54893
2.52935
2.51275
2.49739
2.48032
2.46163
2.44376
2.42884
2.41887
2.412
2.40291
2.38913
2.37297
2.35621
2.34066
2.32874
2.31739
2.30067
2.27989
2.25654
2.23393
2.21499
2.20068
2.19226
2.1834
2.16772
2.14905
2.13121
2.11547
2.1037
2.09622
2.08734
2.07315
2.05077
2.01775
1.99051
1.97758
1.97239
1.97596
1.98187
1.98448
1.98313
1.99593
2.86679
2.71974
2.47885
2.27649
2.22035
2.1386
2.02788
1.95442
1.92394
1.91945
1.92956
1.94564
1.9463
1.93957
1.94092
1.95679
1.98157
2.00595
2.02093
2.02863
2.04023
2.06481
2.10527
2.15484
2.20167
2.23827
2.26879
2.30326
2.34893
2.40552
2.46173
2.50446
2.53642
2.5672
2.60411
2.64861
2.68802
2.70948
2.72247
2.73788
2.75737
2.77232
2.77444
2.77037
2.76854
2.77198
2.77758
2.77393
2.75886
2.74223
2.72934
2.71952
2.70443
2.68604
2.66336
2.64094
2.62247
2.60523
2.58698
2.56712
2.54761
2.53083
2.51653
2.50118
2.48485
2.46793
2.44792
2.42511
2.40567
2.38964
2.37304
2.35557
2.33699
2.31514
2.2918
2.27423
2.26106
2.24902
2.2338
2.21717
2.19622
2.16987
2.1498
2.13772
2.12907
2.11939
2.10452
2.08189
2.05077
2.02589
2.01495
2.01184
2.01661
2.02752
2.03604
2.0643
3.08636
2.92732
2.72679
2.48895
2.46512
2.3911
2.23809
2.14629
2.10822
2.08426
2.04852
2.05413
2.05803
2.04713
2.03642
2.03939
2.06087
2.10064
2.14385
2.17236
2.1887
2.20607
2.23426
2.28074
2.34393
2.40554
2.45006
2.48219
2.515
2.55968
2.62079
2.68109
2.721
2.74604
2.76922
2.8014
2.84605
2.87917
2.89498
2.90814
2.92099
2.9361
2.94869
2.95316
2.95072
2.94719
2.94566
2.94207
2.93323
2.92305
2.91021
2.8916
2.87088
2.84643
2.81932
2.79831
2.77882
2.75567
2.73163
2.70901
2.6871
2.66603
2.64747
2.62941
2.61039
2.59032
2.5682
2.54406
2.5203
2.49811
2.47728
2.45726
2.43656
2.41356
2.38966
2.36953
2.35335
2.33772
2.32176
2.3045
2.28304
2.25541
2.22763
2.20712
2.19087
2.17547
2.15993
2.14223
2.11799
2.09
2.07534
2.06946
2.06957
2.07621
2.09243
2.14075
3.23034
3.05519
2.88401
2.66318
2.55798
2.53084
2.44885
2.40233
2.43583
2.47455
2.37794
2.28508
2.2579
2.24552
2.23631
2.22787
2.22559
2.24186
2.28872
2.3463
2.3789
2.39428
2.40983
2.43886
2.4924
2.55938
2.60889
2.63727
2.66018
2.68841
2.73583
2.80178
2.84796
2.87326
2.8951
2.92438
2.97027
3.01095
3.02156
3.02639
3.03702
3.0597
3.08019
3.07786
3.06394
3.0485
3.0431
3.0452
3.04065
3.02594
3.00191
2.97577
2.95488
2.93968
2.93153
2.92232
2.90462
2.88209
2.85487
2.82343
2.79444
2.77144
2.75099
2.73051
2.70964
2.68741
2.66233
2.6346
2.60737
2.5839
2.5638
2.54479
2.52468
2.50182
2.47586
2.45047
2.42977
2.41253
2.39631
2.37916
2.35865
2.33111
2.29579
2.26577
2.24768
2.23384
2.22109
2.208
2.1912
2.16515
2.13333
2.12263
2.12298
2.134
2.16497
2.24816
3.34093
3.15922
2.98421
2.79256
2.63747
2.62845
2.62161
2.67482
2.85008
3.00327
2.88571
2.69254
2.56219
2.50969
2.48272
2.45289
2.43932
2.44086
2.47181
2.52969
2.55593
2.56056
2.57052
2.58942
2.62552
2.68168
2.72595
2.75024
2.77162
2.79899
2.8403
2.89753
2.9367
2.95209
2.9656
2.98341
3.01275
3.0382
3.04469
3.04829
3.06177
3.0859
3.09927
3.09842
3.09289
3.09094
3.09701
3.09431
3.07961
3.05763
3.03118
3.01325
2.99935
2.98352
2.97004
2.95818
2.94426
2.92793
2.90756
2.88607
2.86571
2.84457
2.82341
2.80108
2.77632
2.74989
2.72165
2.69138
2.66268
2.64121
2.62397
2.6066
2.58724
2.56463
2.5374
2.50733
2.48222
2.46416
2.44848
2.43268
2.41487
2.39083
2.3541
2.31321
2.29081
2.27841
2.26716
2.25586
2.24403
2.22658
2.19562
2.17253
2.17267
2.19377
2.24014
2.35354
3.42443
3.23595
3.07511
2.89721
2.76923
2.80507
2.90388
3.04629
3.23479
3.39496
3.279
3.08092
2.89114
2.75963
2.69186
2.64414
2.60855
2.60524
2.61869
2.65339
2.68821
2.69863
2.70599
2.715
2.73187
2.76449
2.79883
2.81746
2.83211
2.85149
2.87668
2.90837
2.94322
2.96102
2.97328
2.9868
3.00593
3.0309
3.04513
3.04983
3.05709
3.07137
3.08315
3.08596
3.08897
3.0969
3.10037
3.08808
3.07142
3.05863
3.05134
3.04903
3.03649
3.01505
2.98909
2.96646
2.9501
2.93712
2.92477
2.90957
2.88824
2.86455
2.84597
2.82756
2.80871
2.78743
2.76157
2.73002
2.69657
2.67249
2.65593
2.64009
2.62282
2.60242
2.57626
2.54236
2.50876
2.48719
2.47271
2.45939
2.44564
2.42811
2.39739
2.35109
2.3182
2.30367
2.29273
2.282
2.27329
2.263
2.2471
2.2251
2.22516
2.26048
2.3227
2.44432
3.48636
3.30391
3.17632
3.06529
3.04186
3.13157
3.28223
3.37592
3.47791
3.62104
3.54864
3.37294
3.18294
3.00331
2.88374
2.82446
2.77716
2.73497
2.72055
2.73322
2.76687
2.77974
2.78054
2.77476
2.77819
2.79316
2.81932
2.83402
2.84162
2.85301
2.87011
2.8927
2.9226
2.94753
2.96176
2.97569
2.99167
3.01364
3.03539
3.04454
3.04781
3.05306
3.05982
3.0672
3.07845
3.09052
3.0871
3.06928
3.05466
3.04993
3.05364
3.06399
3.0542
3.02954
2.99414
2.96958
2.95559
2.9473
2.93917
2.9244
2.8996
2.86158
2.83796
2.8268
2.81559
2.80145
2.78338
2.75777
2.72177
2.68837
2.66904
2.65479
2.64059
2.62411
2.60273
2.57194
2.52981
2.50117
2.48938
2.4791
2.46681
2.44988
2.42394
2.38325
2.34056
2.32059
2.31164
2.30558
2.29831
2.28979
2.28489
2.2758
2.29104
2.34846
2.42175
2.51769
3.54462
3.41291
3.39082
3.40991
3.41873
3.47096
3.53859
3.56816
3.62688
3.76107
3.7163
3.56473
3.40152
3.24082
3.08072
2.99196
2.94111
2.8779
2.82397
2.81089
2.82504
2.83249
2.8221
2.80552
2.8008
2.80582
2.82073
2.83041
2.83609
2.84082
2.84863
2.86223
2.88776
2.92001
2.93906
2.95424
2.97053
2.99009
3.01661
3.03492
3.03892
3.03611
3.03818
3.04706
3.06336
3.07665
3.0719
3.0537
3.03469
3.03208
3.04069
3.05667
3.052
3.03196
2.99465
2.96506
2.95369
2.95182
2.95022
2.93488
2.91156
2.86978
2.82925
2.81323
2.80348
2.79771
2.78809
2.77321
2.74635
2.70252
2.6685
2.653
2.64132
2.62929
2.61501
2.5952
2.56257
2.52091
2.4893
2.47178
2.45814
2.44493
2.43054
2.41044
2.38097
2.34452
2.31592
2.30206
2.29437
2.29633
2.31214
2.33634
2.39979
2.48732
2.537
2.57244
3.67088
3.68423
3.78186
3.78064
3.71805
3.70773
3.71739
3.71716
3.75866
3.8752
3.84205
3.71227
3.55708
3.42731
3.28277
3.1427
3.06802
3.01701
2.95036
2.89496
2.88023
2.88198
2.86655
2.8433
2.8279
2.82547
2.83182
2.83455
2.83591
2.83869
2.84292
2.85227
2.86672
2.88978
2.91135
2.92589
2.94164
2.96331
2.9928
3.02115
3.03076
3.02773
3.02346
3.02976
3.04416
3.05821
3.05611
3.0418
3.01906
3.01202
3.01781
3.03309
3.03336
3.02122
2.99333
2.95932
2.94747
2.94472
2.94679
2.93519
2.91707
2.88438
2.8334
2.80394
2.79305
2.78699
2.78287
2.77337
2.75679
2.72195
2.67814
2.65254
2.63841
2.62668
2.61637
2.60391
2.58444
2.5463
2.49892
2.46998
2.45452
2.44307
2.43326
2.42255
2.40635
2.37429
2.32886
2.30421
2.30144
2.31058
2.35193
2.42607
2.549
2.62441
2.63787
2.61675
4.00988
4.09377
4.13663
4.02744
3.91987
3.87271
3.86347
3.8514
3.88176
3.98111
3.95373
3.84139
3.69407
3.57202
3.45806
3.31718
3.19614
3.13339
3.07547
3.00088
2.94642
2.93154
2.91851
2.89194
2.86559
2.85599
2.85481
2.84773
2.84015
2.8388
2.83864
2.84428
2.85666
2.86646
2.87756
2.88977
2.90439
2.92625
2.95737
2.99072
3.01044
3.01305
3.00666
3.01031
3.02437
3.04066
3.04164
3.0324
3.01074
2.99593
2.9953
3.004
3.00768
3.0025
2.9882
2.9585
2.93645
2.93165
2.93301
2.92553
2.91294
2.89367
2.85856
2.81522
2.79002
2.77953
2.77171
2.76315
2.75193
2.736
2.70742
2.6686
2.63882
2.62427
2.61362
2.60328
2.58949
2.56595
2.52568
2.48083
2.45463
2.44215
2.4329
2.42357
2.41133
2.39229
2.35474
2.32122
2.32003
2.3478
2.42477
2.53925
2.66932
2.70652
2.7034
2.66516
4.39786
4.42449
4.35845
4.19715
4.08254
4.02257
3.99972
3.97618
3.99377
4.07635
4.054
3.95407
3.81935
3.70295
3.60228
3.48273
3.34794
3.24505
3.18229
3.11387
3.03711
2.99414
2.97559
2.94751
2.91396
2.89668
2.88826
2.87554
2.85871
2.84864
2.8447
2.84519
2.85248
2.85907
2.85757
2.85643
2.86091
2.87367
2.90031
2.93507
2.96202
2.97534
2.97552
2.97854
2.99601
3.01571
3.02854
3.02599
3.00922
2.98823
2.98286
2.98401
2.9859
2.98199
2.9764
2.9623
2.93516
2.91692
2.91319
2.91251
2.90312
2.89135
2.87561
2.84743
2.80999
2.78045
2.76568
2.75514
2.74601
2.73733
2.72453
2.7003
2.66288
2.62728
2.6087
2.59736
2.58579
2.57112
2.54737
2.51163
2.47185
2.44571
2.4323
2.42093
2.40989
2.39717
2.38022
2.36124
2.37186
2.43915
2.54302
2.64738
2.72612
2.7485
2.74302
2.7113
4.71094
4.64929
4.51717
4.35014
4.2446
4.18712
4.14765
4.11233
4.118
4.17958
4.15388
4.05862
3.93555
3.82845
3.73167
3.6214
3.49645
3.36988
3.28534
3.22623
3.15249
3.08255
3.04757
3.01437
2.97343
2.94953
2.93597
2.91894
2.89698
2.87481
2.86275
2.85649
2.85661
2.85584
2.85012
2.84191
2.83355
2.83164
2.83897
2.86247
2.89181
2.91508
2.92601
2.93234
2.95128
2.97488
2.99521
3.01037
3.00626
2.98504
2.97533
2.97058
2.96848
2.96784
2.96647
2.95945
2.945
2.91611
2.89188
2.88167
2.87993
2.88318
2.87895
2.86781
2.84408
2.80434
2.76853
2.75405
2.74606
2.73737
2.72847
2.71717
2.69706
2.65776
2.61671
2.59389
2.58002
2.56709
2.55229
2.53385
2.50601
2.46947
2.43829
2.4165
2.40294
2.39697
2.40208
2.41839
2.48156
2.59928
2.67987
2.72605
2.75072
2.77046
2.77017
2.74704
4.92302
4.81747
4.67098
4.5108
4.41265
4.35972
4.30828
4.26001
4.25003
4.29157
4.26009
4.16759
4.05221
3.95373
3.86435
3.75366
3.63338
3.50922
3.40186
3.33576
3.27619
3.19908
3.13331
3.08934
3.04669
3.01637
2.99555
2.97452
2.94831
2.91652
2.89581
2.88212
2.87268
2.86319
2.85382
2.84349
2.82658
2.8155
2.81088
2.81235
2.82117
2.83854
2.85478
2.86425
2.88453
2.91169
2.93841
2.96754
2.97749
2.96081
2.95593
2.95854
2.95784
2.9645
2.95973
2.95284
2.94371
2.92158
2.88655
2.86618
2.86083
2.86825
2.88206
2.87759
2.86026
2.83459
2.79739
2.75982
2.7461
2.74555
2.74657
2.7355
2.7161
2.68455
2.63727
2.60324
2.58797
2.57306
2.55804
2.54337
2.5264
2.49754
2.45433
2.41996
2.40863
2.4114
2.44168
2.51076
2.65521
2.76888
2.79236
2.78182
2.7758
2.7807
2.79285
2.77742
5.09062
4.97668
4.84064
4.68241
4.58355
4.53626
4.48521
4.42034
4.38394
4.40935
4.37939
4.29003
4.17768
4.08158
3.99775
3.89153
3.76804
3.65357
3.54302
3.4567
3.39924
3.3326
3.24842
3.17533
3.13391
3.10216
3.07333
3.04696
3.01538
2.97304
2.94151
2.92063
2.90348
2.8859
2.8695
2.85383
2.83251
2.80871
2.79536
2.78594
2.78188
2.78
2.78501
2.78704
2.79354
2.81861
2.84618
2.88404
2.91867
2.918
2.90877
2.92249
2.92103
2.92255
2.93578
2.94435
2.93891
2.91536
2.88348
2.86372
2.84933
2.84319
2.84416
2.84671
2.84807
2.83889
2.81568
2.78119
2.74929
2.73404
2.72546
2.71631
2.70802
2.69404
2.66314
2.61833
2.57782
2.56388
2.55981
2.55594
2.5405
2.51297
2.47298
2.43018
2.42531
2.45003
2.53027
2.66917
2.83032
2.87846
2.87148
2.83288
2.80754
2.80021
2.80365
2.80093
5.26253
5.15362
5.01899
4.85291
4.74932
4.7044
4.65659
4.58075
4.52174
4.53544
4.5133
4.43102
4.31848
4.21845
4.13095
4.03136
3.90714
3.79065
3.69169
3.59504
3.52287
3.46123
3.38186
3.28692
3.22755
3.19501
3.16165
3.12702
3.08812
3.03669
2.99201
2.96359
2.94141
2.91951
2.89601
2.87218
2.84353
2.81167
2.78613
2.77091
2.75824
2.74781
2.7383
2.7249
2.70892
2.70976
2.72691
2.75575
2.80576
2.8353
2.83414
2.8581
2.86797
2.86308
2.8799
2.89784
2.89474
2.8813
2.87559
2.86255
2.8424
2.82019
2.80919
2.80779
2.80687
2.80325
2.79773
2.7831
2.75165
2.71785
2.70538
2.69803
2.68852
2.67598
2.66101
2.62698
2.58575
2.56386
2.55297
2.53842
2.52018
2.5041
2.48489
2.45993
2.4665
2.53965
2.6767
2.83483
2.92668
2.93377
2.92147
2.88339
2.84037
2.82508
2.82075
2.81817
5.35171
5.27105
5.15467
5.01134
4.92486
4.88181
4.82225
4.72596
4.64666
4.65262
4.64304
4.57201
4.46186
4.35865
4.26889
4.17234
4.05401
3.92655
3.83282
3.74003
3.65295
3.58466
3.51042
3.41472
3.32902
3.28567
3.24923
3.20692
3.15908
3.10021
3.04321
3.00676
2.97787
2.95185
2.92399
2.89139
2.85385
2.80945
2.77502
2.75507
2.73975
2.72411
2.7051
2.67993
2.64654
2.61837
2.61433
2.62165
2.64816
2.6955
2.71419
2.7295
2.76932
2.7773
2.7922
2.82772
2.83003
2.82641
2.83277
2.83675
2.82892
2.80449
2.77181
2.76021
2.75859
2.75962
2.75835
2.75135
2.73513
2.70161
2.6702
2.66137
2.65466
2.64689
2.63733
2.62578
2.59862
2.55949
2.53234
2.51563
2.49932
2.48951
2.49029
2.50512
2.5796
2.72548
2.84954
2.92861
2.96397
2.96233
2.94769
2.92025
2.87805
2.84286
2.82938
2.82299
5.36096
5.34092
5.24527
5.12501
5.04885
5.01207
4.94646
4.8468
4.77347
4.76928
4.7598
4.68869
4.57563
4.46749
4.37786
4.28613
4.17996
4.05311
3.95371
3.87241
3.7805
3.69688
3.62128
3.53354
3.43619
3.37022
3.32551
3.28022
3.22766
3.1627
3.0932
3.04589
3.01086
2.9792
2.9489
2.91228
2.8647
2.81151
2.7685
2.74297
2.72252
2.70132
2.67745
2.64868
2.61112
2.5677
2.54232
2.53273
2.53236
2.54421
2.56594
2.57424
2.60515
2.63726
2.65549
2.70329
2.73529
2.74626
2.76523
2.7829
2.78445
2.7717
2.7413
2.71314
2.70738
2.707
2.71067
2.70956
2.7021
2.68323
2.6464
2.61868
2.61175
2.60746
2.60527
2.59771
2.58412
2.55352
2.51404
2.48438
2.47369
2.47898
2.5087
2.5995
2.7887
2.92158
2.95817
2.96922
2.97873
2.97894
2.9629
2.94182
2.9104
2.86635
2.84265
2.83973
5.31661
5.28429
5.2216
5.15667
5.10789
5.08317
5.02078
4.92975
4.86014
4.84748
4.8352
4.76597
4.65805
4.55523
4.47182
4.38326
4.28083
4.16149
4.04905
3.96932
3.88682
3.79572
3.70346
3.61568
3.5297
3.45457
3.38856
3.33147
3.27443
3.20801
3.13702
3.08029
3.03591
2.99579
2.95756
2.91595
2.86658
2.80759
2.75943
2.72969
2.70137
2.6726
2.6438
2.61298
2.57709
2.53417
2.49709
2.47433
2.45893
2.44755
2.44031
2.43299
2.44224
2.47234
2.49537
2.52976
2.58025
2.62078
2.65676
2.69272
2.71724
2.71909
2.70363
2.67192
2.65335
2.64979
2.65153
2.65845
2.65875
2.65245
2.6306
2.59146
2.56886
2.56324
2.56043
2.56105
2.55344
2.53919
2.50327
2.46506
2.46376
2.48688
2.58166
2.77945
2.97088
3.02066
3.00344
2.97761
2.96944
2.96912
2.96064
2.94657
2.92712
2.89579
2.86719
2.8663
5.21976
5.18548
5.14135
5.09699
5.06773
5.04565
5.00065
4.94135
4.89095
4.87835
4.86429
4.79361
4.68581
4.58111
4.4972
4.43142
4.34562
4.23699
4.12905
4.04762
3.96643
3.87795
3.78255
3.68451
3.6029
3.52693
3.4513
3.37044
3.29604
3.23525
3.17729
3.1174
3.06424
3.01634
2.96769
2.91771
2.86721
2.81458
2.75868
2.709
2.66766
2.6324
2.59972
2.56559
2.52652
2.48633
2.4534
2.42709
2.40307
2.37845
2.35264
2.33242
2.32694
2.33512
2.34795
2.36533
2.39938
2.44184
2.49532
2.54978
2.60403
2.64693
2.65312
2.63431
2.60676
2.59609
2.59331
2.59936
2.6087
2.60868
2.60027
2.57275
2.53326
2.51584
2.51082
2.51089
2.51274
2.50037
2.47886
2.4621
2.47094
2.55307
2.73661
2.94182
3.03672
3.04053
3.01315
2.96793
2.94926
2.9395
2.93948
2.9402
2.93222
2.91793
2.901
2.90741
5.19016
5.13534
5.08918
5.05312
5.02632
4.9893
4.93693
4.88272
4.84049
4.82481
4.80076
4.73623
4.65142
4.56944
4.4957
4.4318
4.34569
4.23985
4.12773
4.0421
3.96303
3.87314
3.78203
3.68984
3.59702
3.51495
3.44193
3.3734
3.30273
3.23028
3.15801
3.09019
3.02926
2.97547
2.92649
2.8781
2.8284
2.78038
2.7336
2.68678
2.64268
2.60145
2.56146
2.52144
2.48122
2.44618
2.41664
2.38872
2.3583
2.32248
2.28614
2.26541
2.25257
2.24464
2.24158
2.24264
2.25501
2.27363
2.31006
2.36981
2.43521
2.50658
2.57078
2.58417
2.57391
2.55473
2.54653
2.54621
2.55292
2.55807
2.55417
2.54259
2.5134
2.47887
2.46691
2.46294
2.46254
2.45469
2.4531
2.46314
2.53215
2.72036
2.89807
3.01249
3.04154
3.02993
2.99839
2.95401
2.92463
2.91411
2.91144
2.92221
2.9365
2.93735
2.93159
2.94337
5.20565
5.1438
5.08482
5.03132
4.98014
4.92452
4.87076
4.82643
4.7956
4.77433
4.73366
4.66989
4.59847
4.52479
4.45542
4.38919
4.30915
4.21262
4.11049
4.02725
3.95594
3.87275
3.78269
3.69227
3.60158
3.51604
3.44063
3.37107
3.30261
3.23292
3.16181
3.09085
3.02398
2.96434
2.91065
2.86014
2.81104
2.76254
2.71456
2.66674
2.61865
2.57058
2.52461
2.48332
2.44794
2.41874
2.39052
2.35949
2.32281
2.28065
2.24412
2.21786
2.1974
2.18327
2.17145
2.16379
2.16162
2.16208
2.16362
2.18986
2.24785
2.32529
2.41423
2.48933
2.51753
2.52233
2.51374
2.50652
2.50575
2.50949
2.51157
2.50568
2.49312
2.46547
2.43523
2.42159
2.4121
2.41347
2.43941
2.50716
2.71969
2.90627
2.97828
2.99943
3.00391
2.98752
2.96756
2.94228
2.91509
2.90581
2.90334
2.91229
2.94115
2.96286
2.96412
2.97048
5.22205
5.15802
5.096
5.0355
4.97167
4.91072
4.85494
4.80646
4.76529
4.72051
4.66614
4.60468
4.54035
4.47517
4.41559
4.35433
4.27562
4.18047
4.08549
4.00624
3.93783
3.86136
3.77511
3.68494
3.59631
3.51154
3.43554
3.36599
3.29805
3.22945
3.15909
3.08754
3.01911
2.95642
2.89842
2.84457
2.79407
2.74522
2.69666
2.64772
2.59794
2.54832
2.50201
2.46178
2.42861
2.39873
2.36719
2.33163
2.29234
2.25478
2.22187
2.18957
2.16002
2.13981
2.12543
2.11355
2.10402
2.09461
2.08302
2.07474
2.09113
2.14303
2.22868
2.33891
2.39874
2.45173
2.4796
2.47355
2.46655
2.46911
2.47641
2.47851
2.47079
2.45716
2.42481
2.3876
2.37828
2.39313
2.44895
2.66774
2.92874
2.99885
2.98175
2.9675
2.95981
2.9511
2.9417
2.93009
2.91245
2.90472
2.9077
2.92234
2.95685
2.9896
2.99364
2.98179
5.24032
5.17905
5.11742
5.05434
4.99047
4.93071
4.87447
4.82131
4.76766
4.70771
4.64698
4.58472
4.52123
4.45938
4.39837
4.32742
4.24163
4.14995
4.06501
3.99404
3.9314
3.85829
3.77352
3.67999
3.59276
3.51302
3.43824
3.36799
3.29961
3.23057
3.15943
3.0878
3.01991
2.95695
2.89721
2.83973
2.78416
2.73096
2.6798
2.63041
2.58297
2.53761
2.4938
2.45111
2.41187
2.37662
2.34225
2.30732
2.27374
2.24356
2.21352
2.17989
2.14373
2.11338
2.09458
2.08193
2.0708
2.0604
2.04823
2.03007
2.01688
2.02751
2.06671
2.14835
2.25438
2.31741
2.38941
2.43116
2.43095
2.43316
2.44017
2.45091
2.4525
2.44265
2.41926
2.3759
2.36908
2.40379
2.58556
2.89357
3.02258
3.01732
2.97586
2.95189
2.93903
2.93515
2.9356
2.93083
2.9231
2.91959
2.92986
2.94737
2.97611
3.00236
3.00534
2.98577
5.25725
5.19827
5.13769
5.0754
5.01412
4.95496
4.89723
4.84039
4.77961
4.71637
4.65348
4.59121
4.52972
4.46792
4.39987
4.32099
4.23513
4.14936
4.07196
4.00756
3.94109
3.86178
3.77093
3.67655
3.59784
3.52473
3.45235
3.38129
3.30971
3.23503
3.1596
3.08879
3.02374
2.96238
2.90264
2.84298
2.78317
2.72511
2.67097
2.62167
2.57666
2.53482
2.49312
2.44859
2.4019
2.358
2.32261
2.29293
2.26548
2.23866
2.20977
2.17728
2.13993
2.10094
2.07245
2.05763
2.04613
2.03531
2.0233
2.00842
1.98505
1.96258
1.96492
1.9912
2.06339
2.16087
2.24098
2.33862
2.39039
2.393
2.40027
2.41127
2.42596
2.42372
2.40627
2.38289
2.39269
2.52839
2.82607
3.02521
3.0411
3.01844
2.97415
2.94768
2.93958
2.93466
2.94328
2.958
2.96582
2.97359
2.97324
2.97687
2.98862
2.9999
3.00079
2.97977
5.27171
5.21432
5.15563
5.09553
5.03584
4.97648
4.91731
4.85682
4.79359
4.73038
4.668
4.60621
4.54472
4.47986
4.40682
4.3268
4.24389
4.16437
4.09437
4.03006
3.95228
3.86371
3.76778
3.68632
3.61774
3.5489
3.47765
3.40367
3.32256
3.23805
3.16147
3.0942
3.03233
2.97333
2.91467
2.85341
2.78899
2.72501
2.66774
2.61896
2.57601
2.53647
2.49712
2.45341
2.40187
2.34842
2.30844
2.283
2.26234
2.2416
2.21684
2.18279
2.13929
2.09572
2.06173
2.03914
2.02542
2.01262
1.99905
1.98345
1.95818
1.92869
1.91103
1.9105
1.93099
1.99467
2.07913
2.17863
2.29064
2.34351
2.35029
2.3654
2.38635
2.39544
2.38888
2.39665
2.4946
2.77542
3.00467
3.06295
3.05083
3.02383
2.98574
2.96143
2.95497
2.96702
2.99803
3.02153
3.03316
3.03317
3.02616
3.01493
3.00563
2.99864
2.99088
2.96781
5.28211
5.22544
5.16847
5.11008
5.05116
4.99144
4.93102
4.86869
4.80582
4.74376
4.68247
4.62117
4.55758
4.48761
4.41186
4.33359
4.25644
4.18452
4.12067
4.0474
3.96053
3.86549
3.77682
3.7046
3.64058
3.57336
3.50054
3.42013
3.33054
3.24341
3.17009
3.10604
3.04537
2.98627
2.92841
2.8681
2.79911
2.72823
2.66892
2.62133
2.57948
2.5392
2.49874
2.45545
2.40438
2.35047
2.30713
2.27614
2.2523
2.22951
2.20517
2.17524
2.13632
2.096
2.06118
2.03129
2.00727
1.99095
1.97586
1.95922
1.93857
1.91329
1.88782
1.86968
1.86679
1.88317
1.93213
2.00771
2.11179
2.22878
2.28205
2.31094
2.34069
2.35852
2.37386
2.4491
2.71448
2.98762
3.0823
3.08769
3.06814
3.04163
3.02301
3.01875
3.02203
3.03552
3.05127
3.06442
3.0745
3.07116
3.06143
3.04313
3.02148
3.00129
2.98333
2.95532
5.28813
5.2315
5.17527
5.11746
5.05853
4.99825
4.93683
4.87421
4.81246
4.75203
4.69218
4.63077
4.56442
4.49159
4.41584
4.34086
4.26894
4.20217
4.13718
4.05718
3.96764
3.87624
3.79708
3.72601
3.65959
3.58841
3.51178
3.42737
3.33862
3.25692
3.18568
3.12126
3.06207
3.00553
2.94565
2.87686
2.80424
2.73545
2.67446
2.62314
2.58302
2.54808
2.51004
2.46389
2.41059
2.35764
2.31129
2.27253
2.24249
2.21906
2.19506
2.16762
2.13546
2.09872
2.06416
2.03023
1.99948
1.97505
1.95558
1.9374
1.92003
1.90149
1.88293