/*--------------------------------*- C++ -*----------------------------------*\
  =========                 |
  \\      /  F ield         | OpenFOAM: The Open Source CFD Toolbox
   \\    /   O peration     | Website:  https://openfoam.org
    \\  /    A nd           | Version:  7
     \\/     M anipulation  |
\*---------------------------------------------------------------------------*/
FoamFile
{
    version     2.0;
    format      ascii;
    class       volScalarField;
    location    "14.5";
    object      T;
}
// * * * * * * * * * * * * * * * * * * * * * * * * * * * * * * * * * * * * * //

dimensions      [0 0 0 1 0 0 0];

internalField   nonuniform List<scalar> 
4032
(
1
1
1
1
1
1
1
1
1
1
1
1.05801
2.32868
2.71229
2.72542
2.74122
2.75574
2.7692
2.78092
2.79067
2.79882
2.8054
2.81058
2.81433
1
1
1
1
1
1
1
1
1
1
1
1.02977
2.30944
2.70942
2.72355
2.73927
2.75383
2.76718
2.77873
2.78817
2.79588
2.80189
2.80638
2.80964
1
1
1
1
1
1
1
1
1
1
1
1.00142
2.26598
2.7046
2.71984
2.73532
2.74974
2.76273
2.7739
2.78301
2.79056
2.79666
2.80127
2.80493
1
1
1
1
1
1
1
1
1
1
1
1.00001
2.19985
2.69578
2.71473
2.72984
2.74406
2.75655
2.7673
2.77603
2.78311
2.78845
2.79193
2.79429
1
1
1
1
1
1
1
1
1
1
1
1
2.10503
2.68035
2.70831
2.72298
2.73682
2.74844
2.75808
2.76537
2.77075
2.77466
2.77689
2.77998
1
1
1
1
1
1
1
1
1
1
1
1
1.97412
2.65159
2.69633
2.71189
2.72591
2.73695
2.74569
2.7521
2.75653
2.75892
2.75682
2.75022
1
1
1
1
1
1
1
1
1
1
1
1
1.79792
2.59865
2.67708
2.69712
2.71289
2.72383
2.73099
2.73462
2.7346
2.72975
2.71974
2.71039
1
1
1
1
1
1
1
1
1
1
1
1
1.54855
2.50189
2.64859
2.67612
2.69447
2.70617
2.71247
2.71334
2.70896
2.70146
2.69485
2.70722
1
1
1
1
1
1
1
1
1
1
1
1
1.20608
2.36911
2.62582
2.64614
2.6658
2.67963
2.6865
2.6857
2.67705
2.6566
2.60719
2.51547
1
1
1
1
1
1
1
1
1
1
1
1
1.01219
2.25146
2.61232
2.61129
2.62618
2.64252
2.65146
2.64992
2.6382
2.60469
2.54919
2.39829
1
1
1
1
1
1
1
1
1
1
1
1
1.00001
2.02612
2.58083
2.5972
2.6072
2.61221
2.61576
2.61154
2.59728
2.55984
2.49833
2.32206
1
1
1
1
1
1
1
1
1
1
1
1
0.999999
1.64298
2.48283
2.57842
2.58405
2.58642
2.58424
2.57492
2.55554
2.51841
2.44869
2.29557
1
1
1
1
1
1
1
1
1
1
1
1
1
1.14663
2.31969
2.57579
2.56378
2.56063
2.5545
2.54011
2.51626
2.47932
2.4051
2.29267
1
1
1
1
1
1
1
1
1
1
1
1
1
1.00577
2.1367
2.51642
2.53085
2.53227
2.52495
2.50896
2.48307
2.44147
2.37272
2.28503
1
1
1
1
1
1
1
1
1
1
1
1
1
0.999973
1.69788
2.40918
2.50878
2.50849
2.50041
2.48243
2.45639
2.41233
2.35148
2.27905
1
1
1
1
1
1
1
1
1
1
1
1
1
0.999992
1.13702
2.23436
2.49334
2.48099
2.47174
2.45333
2.4281
2.38688
2.33439
2.27224
1
1
1
1
1
1
1
1
1
1
1
1
1
0.999998
1.00444
1.9748
2.41949
2.44627
2.43916
2.42433
2.40067
2.36516
2.31991
2.26606
1
1
1
1
1
1
1
1
1
1
1
1
1
1
0.999987
1.38739
2.2621
2.4229
2.40794
2.39444
2.37358
2.34309
2.3037
2.2576
1
1
1
1
1
1
1
1
1
1
1
1
1
1
0.999996
1.03701
2.05371
2.38151
2.36757
2.35941
2.34242
2.31711
2.28474
2.2509
1
1
1
1
1
1
1
1
1
1
1
1
1
1
0.999999
1.00023
1.50161
2.22888
2.34727
2.3321
2.31248
2.291
2.27221
2.27398
1
1
1
1
1
1
1
1
1
1
1
1
1
1
1
1
1.06653
2.0117
2.32082
2.29917
2.28114
2.27804
2.2887
2.32529
1
1
1
1
1
1
1
1
1
1
1
1
1
1
1
1
1.0009
1.44284
2.14949
2.26722
2.26977
2.29755
2.34661
2.38042
1
1
1
1
1
1
1
1
1
1
1
1
1
1
1
1
1
1.05061
1.8754
2.21412
2.30121
2.36059
2.40662
2.40003
1
1
1
1
1
1
1
1
1
1
1
1
1
1
1
1
1
1.00064
1.30638
2.05492
2.3488
2.39843
2.41686
2.39459
1
1
1
1
1
1
1
1
1
1
1
1
1
1
1
1
1
1
1.02252
1.94701
2.44528
2.44485
2.42197
2.39431
1
1
1
1
1
1
1
1
1
1
1
1
1
1
1
1
1
1
1.00017
1.78413
2.56812
2.53877
2.4718
2.42057
1
1
1
1
1
1
1
1
1
1
1
1
1
1
1
1
1
1
1
1.74009
2.6452
2.61344
2.53982
2.48425
1
1
1
1
1
1
1
1
1
1
1
1
1
1
1
1
1
1
1
1.63794
2.62772
2.67093
2.62948
2.58414
1
1
1
1
1
1
1
1
1
1
1
1
1
1
1
1
1
1
1
1.45086
2.54829
2.70051
2.67001
2.6423
1
1
1
1
1
1
1
1
1
1
1
1
1
1
1
1
1
1
1
1.25928
2.44736
2.69524
2.67356
2.66063
1
1
1
1
1
1
1
1
1
1
1
1
1
1
1
1
1
1
1
1.10286
2.3644
2.6876
2.67091
2.66304
1
1
1
1
1
1
1
1
1
1
1
1
1
1
1
1
1
1
1
1.00385
2.30095
2.68364
2.67093
2.66144
1
1
1
1
1
1
1
1
1
1
1
1
1
1
1
1
1
1
1
1.00002
2.22812
2.67699
2.67217
2.6599
1
1
1
1
1
1
1
1
1
1
1
1
1
1
1
1
1
1
1
1
2.15016
2.66808
2.67493
2.6601
1
1
1
1
1
1
1
1
1
1
1
1
1
1
1
1
1
1
1
1
2.07417
2.66054
2.67808
2.66171
1
1
1
1
1
1
1
1
1
1
1
1
1
1
1
1
1
1
1
1
2.0118
2.65654
2.68214
2.665
1
1
1
1
1
1
1
1
1
1
1
1
1
1
1
1
1
1
1
1
1.96343
2.65407
2.68678
2.66931
1
1
1
1
1
1
1
1
1
1
1
1
1
1
1
1
1
1
1
1
1.92411
2.65074
2.69085
2.67326
1
1
1
1
1
1
1
1
1
1
1
1
1
1
1
1
1
1
1
1
1.89832
2.64784
2.69265
2.67518
1
1
1
1
1
1
1
1
1
1
1
1
1
1
1
1
1
1
1
1
1.89013
2.64619
2.69268
2.67586
1.83005
2.0096
2.27933
2.44292
2.52352
2.58777
2.63287
2.66131
2.67503
2.68082
2.68144
2.68042
2.67644
2.67193
2.66924
2.66869
2.67535
2.68601
2.69725
2.70482
2.70972
2.71372
2.71969
2.72843
2.74059
2.75425
2.76679
2.77653
2.78341
2.78814
2.79131
2.79368
2.7959
2.79839
2.80128
2.80456
2.80796
2.81029
2.81016
2.80671
2.8001
2.79203
2.78347
2.77462
2.76551
2.75654
2.74826
2.74121
2.73447
2.72657
2.71647
2.70486
2.69233
2.67895
2.66452
2.64872
2.63187
2.61498
2.59889
2.58369
2.56885
2.55385
2.53866
2.52374
2.5096
2.49601
2.48217
2.46707
2.4505
2.43347
2.41722
2.40246
2.38922
2.3768
2.3637
2.34893
2.33299
2.3172
2.30266
2.28987
2.27886
2.26764
2.25259
2.23664
2.22156
2.20807
2.19773
2.19256
2.18757
2.17571
2.16321
2.14897
2.13563
2.12809
2.12634
2.13842
2.07865
2.20559
2.34865
2.45371
2.5268
2.58264
2.62824
2.6594
2.67166
2.67586
2.67787
2.67939
2.68047
2.6808
2.68085
2.68047
2.68421
2.69041
2.6997
2.7078
2.71353
2.71757
2.72041
2.72382
2.72971
2.7385
2.74875
2.75811
2.76463
2.76807
2.76989
2.77176
2.77438
2.7765
2.77668
2.77469
2.77172
2.76989
2.76884
2.76643
2.76084
2.75289
2.7447
2.73755
2.73117
2.72448
2.7158
2.70649
2.69782
2.68964
2.68051
2.6692
2.65606
2.6424
2.6293
2.61645
2.6027
2.5879
2.57299
2.55889
2.54579
2.53303
2.51939
2.50471
2.4899
2.47568
2.46234
2.44939
2.43572
2.42042
2.4044
2.3886
2.37351
2.35989
2.34792
2.33667
2.32439
2.31008
2.2952
2.28116
2.26869
2.25789
2.24635
2.23207
2.21644
2.20049
2.18681
2.17552
2.16713
2.16194
2.15478
2.14578
2.13577
2.12489
2.12125
2.1293
2.09668
2.14473
2.20346
2.29343
2.40204
2.49554
2.56522
2.6095
2.63639
2.65364
2.66807
2.67811
2.68288
2.68402
2.68553
2.68741
2.68933
2.68929
2.68899
2.69008
2.69403
2.6993
2.70325
2.70396
2.7016
2.69846
2.6976
2.69966
2.70287
2.70346
2.69994
2.69396
2.68984
2.68867
2.68883
2.6876
2.68151
2.67226
2.66438
2.65864
2.65278
2.64459
2.63444
2.62538
2.61959
2.61631
2.61311
2.60665
2.59921
2.59202
2.58555
2.57842
2.56823
2.55611
2.54424
2.53364
2.5237
2.51294
2.50103
2.48882
2.47729
2.46746
2.45867
2.44868
2.43655
2.42325
2.40956
2.39654
2.38536
2.3747
2.36191
2.34731
2.33131
2.31536
2.30097
2.28883
2.2793
2.26963
2.25734
2.24413
2.23137
2.21959
2.20939
2.20076
2.19146
2.17996
2.16498
2.14571
2.13023
2.12147
2.11572
2.11461
2.11394
2.11177
2.10794
2.11151
2.10641
2.1153
2.10621
2.14593
2.25025
2.35241
2.4212
2.4844
2.54277
2.58458
2.61643
2.63572
2.63762
2.63089
2.62511
2.62549
2.629
2.63094
2.62651
2.6163
2.60595
2.59929
2.59729
2.59708
2.59394
2.58423
2.57048
2.55825
2.55111
2.54876
2.54675
2.5402
2.52947
2.51889
2.51145
2.50756
2.50331
2.49485
2.48484
2.47764
2.47316
2.46899
2.46282
2.45486
2.4487
2.44596
2.44512
2.44168
2.43496
2.42873
2.4238
2.41983
2.41439
2.40854
2.40148
2.39457
2.38914
2.38411
2.37832
2.37113
2.36315
2.35557
2.34844
2.34039
2.3314
2.32183
2.31107
2.29946
2.28934
2.28049
2.27109
2.26101
2.25033
2.23843
2.22596
2.21558
2.20679
2.19845
2.18908
2.17953
2.16855
2.15543
2.14451
2.13668
2.12999
2.12253
2.11301
2.1012
2.08594
2.07239
2.06497
2.06179
2.06327
2.06683
2.06858
2.07858
2.14683
2.1231
2.08902
2.07216
2.1152
2.18102
2.23262
2.3076
2.39538
2.46775
2.49908
2.52538
2.53291
2.52752
2.51393
2.50271
2.49949
2.50081
2.50183
2.49558
2.47876
2.45824
2.44064
2.43049
2.4265
2.42165
2.40954
2.39188
2.37602
2.36673
2.36438
2.36296
2.35657
2.34525
2.33463
2.32883
2.32873
2.32805
2.32356
2.31827
2.31351
2.31051
2.30886
2.30661
2.30236
2.29893
2.29739
2.29524
2.29206
2.28957
2.28652
2.28155
2.27641
2.27082
2.26485
2.26128
2.25831
2.25419
2.24954
2.24461
2.23907
2.23343
2.22855
2.2236
2.21787
2.21125
2.20363
2.19528
2.18706
2.17927
2.17172
2.16421
2.15633
2.1476
2.13844
2.13037
2.12346
2.11662
2.10975
2.1027
2.09438
2.08382
2.07282
2.06411
2.05679
2.04976
2.04269
2.0345
2.02329
2.0108
2.00395
2.00164
2.00198
2.00504
2.01106
2.02813
2.18431
2.14008
2.09932
2.04434
2.04824
2.07303
2.10044
2.156
2.24861
2.36951
2.37036
2.36644
2.36689
2.36687
2.359
2.34209
2.325
2.3189
2.31858
2.31978
2.31328
2.29491
2.27482
2.26097
2.25671
2.25655
2.25208
2.23944
2.22661
2.2178
2.21645
2.22082
2.22193
2.21803
2.21363
2.21296
2.21737
2.22277
2.22131
2.217
2.21488
2.21601
2.21821
2.21512
2.20725
2.20109
2.19916
2.19974
2.19798
2.19329
2.18662
2.17978
2.17474
2.17159
2.17126
2.17084
2.16821
2.16416
2.15857
2.15108
2.14366
2.13808
2.13362
2.12942
2.12513
2.12004
2.11362
2.10611
2.09865
2.09229
2.08686
2.08161
2.07588
2.0692
2.06146
2.05373
2.04731
2.04189
2.03684
2.03155
2.02523
2.01649
2.00477
1.99455
1.98835
1.9836
1.97906
1.97411
1.96773
1.95808
1.94588
1.94346
1.9438
1.9481
1.95922
1.9883
2.20298
2.15964
2.11497
2.06001
2.02867
2.03827
2.05928
2.11048
2.20557
2.32712
2.31318
2.27439
2.24026
2.22686
2.21804
2.20227
2.18423
2.17565
2.17662
2.18066
2.17839
2.1659
2.15314
2.14447
2.14224
2.14512
2.14601
2.14154
2.1372
2.13625
2.13877
2.14806
2.15206
2.15029
2.14836
2.14839
2.15168
2.15519
2.15405
2.15197
2.15261
2.15599
2.15741
2.1552
2.15073
2.1492
2.15055
2.14954
2.14481
2.13779
2.12999
2.12534
2.12172
2.11741
2.11431
2.11198
2.109
2.10548
2.1009
2.09577
2.09078
2.08553
2.08008
2.07438
2.06856
2.06244
2.0557
2.0481
2.04069
2.03519
2.03084
2.02641
2.02145
2.01554
2.00816
1.99976
1.99276
1.98784
1.98362
1.97941
1.97461
1.96779
1.95658
1.94363
1.93683
1.93322
1.92989
1.92652
1.92303
1.91749
1.907
1.89992
1.90003
1.90729
1.92336
1.96195
2.20844
2.16701
2.12941
2.08163
2.05053
2.06535
2.10192
2.15386
2.21949
2.29897
2.27903
2.23691
2.19154
2.15813
2.13879
2.12364
2.10687
2.09636
2.09619
2.09947
2.10269
2.09973
2.09309
2.08787
2.08647
2.08821
2.09109
2.09044
2.09044
2.09159
2.0937
2.09833
2.10512
2.10698
2.10745
2.10822
2.11066
2.11576
2.11724
2.11647
2.11631
2.11792
2.11928
2.11862
2.11813
2.11893
2.11948
2.11528
2.11004
2.10647
2.10462
2.10385
2.09984
2.0934
2.08621
2.07993
2.07523
2.07173
2.06851
2.06465
2.05906
2.0526
2.04733
2.0423
2.03716
2.03157
2.02517
2.01718
2.00822
2.00162
1.99705
1.99271
1.9882
1.98304
1.9762
1.96675
1.95711
1.95119
1.94727
1.9438
1.94025
1.9356
1.92682
1.91246
1.9024
1.89845
1.89532
1.89236
1.89007
1.8874
1.88291
1.87603
1.87661
1.88961
1.91065
1.94865
2.20934
2.17056
2.14478
2.11803
2.11852
2.14438
2.18637
2.21431
2.24316
2.29302
2.28055
2.24177
2.19716
2.15187
2.11955
2.10191
2.08659
2.07239
2.06322
2.06351
2.06822
2.06836
2.0643
2.05747
2.05606
2.05667
2.06018
2.06101
2.06108
2.06218
2.06406
2.0672
2.0735
2.07912
2.08137
2.08329
2.08573
2.09011
2.09472
2.09506
2.09441
2.09433
2.09457
2.09497
2.09659
2.0989
2.09717
2.09084
2.08611
2.08501
2.08619
2.08874
2.0855
2.07793
2.06776
2.06076
2.05679
2.05399
2.05107
2.04668
2.03978
2.02882
2.0221
2.01894
2.01563
2.01173
2.00679
1.99979
1.98988
1.98055
1.97541
1.97165
1.96778
1.96325
1.95751
1.94913
1.93711
1.92898
1.92606
1.92344
1.92006
1.91531
1.90788
1.89582
1.88294
1.87724
1.87512
1.87388
1.87193
1.86949
1.86854
1.86715
1.87268
1.89216
1.91563
1.94262
2.2113
2.18429
2.18766
2.19846
2.20678
2.22464
2.24308
2.25174
2.26714
2.30226
2.29249
2.25694
2.21647
2.17467
2.13252
2.10782
2.09311
2.07599
2.05975
2.05373
2.05601
2.05643
2.05152
2.04421
2.04013
2.04035
2.04271
2.04337
2.0427
2.04249
2.04301
2.04472
2.04999
2.05752
2.06129
2.06397
2.06661
2.06986
2.07545
2.07837
2.07832
2.07616
2.07524
2.07546
2.07813
2.08132
2.07924
2.07238
2.06584
2.06476
2.0666
2.0704
2.06868
2.06226
2.05138
2.043
2.03956
2.0386
2.03764
2.03264
2.02572
2.01395
2.00215
1.99735
1.99451
1.99292
1.9901
1.98569
1.97787
1.96558
1.95644
1.95292
1.95004
1.94669
1.94267
1.93724
1.92834
1.91644
1.90741
1.90274
1.89898
1.89517
1.89102
1.88562
1.87749
1.86674
1.85839
1.85471
1.85283
1.8534
1.85942
1.86854
1.8892
1.91591
1.93102
1.93903
2.2291
2.23643
2.2677
2.27824
2.26802
2.2702
2.27561
2.27735
2.2891
2.31876
2.31118
2.28018
2.2416
2.20788
2.16921
2.13132
2.11036
2.09524
2.07599
2.06015
2.0547
2.05412
2.04875
2.0412
2.03541
2.03362
2.03443
2.034
2.03168
2.03029
2.03005
2.03075
2.03274
2.03734
2.04139
2.04354
2.04585
2.04938
2.05508
2.0607
2.06131
2.05951
2.05632
2.05612
2.05739
2.06031
2.05913
2.0533
2.04498
2.04205
2.04312
2.04636
2.04584
2.04132
2.033
2.02356
2.01957
2.01845
2.01872
2.01481
2.00928
2.00023
1.98607
1.9774
1.97432
1.97248
1.97119
1.9684
1.96354
1.95392
1.94203
1.9353
1.93213
1.92962
1.92703
1.9236
1.91813
1.90748
1.89376
1.88543
1.88149
1.87866
1.87624
1.87358
1.86922
1.86033
1.84669
1.83973
1.83934
1.84303
1.85747
1.88137
1.92024
1.94214
1.94531
1.93759
2.28698
2.31581
2.33886
2.31881
2.29872
2.29148
2.29586
2.29573
2.30459
2.33238
2.32713
2.30139
2.26586
2.23562
2.20667
2.16992
2.13697
2.11889
2.10227
2.08061
2.06371
2.05816
2.05341
2.04491
2.03618
2.0317
2.02987
2.02626
2.02182
2.01822
2.01549
2.01531
2.01602
2.01593
2.01648
2.01714
2.01878
2.02223
2.02765
2.03395
2.03611
2.03572
2.03209
2.03132
2.03194
2.03401
2.0337
2.02974
2.02144
2.01535
2.0146
2.01626
2.01671
2.01428
2.00911
2.00071
1.99482
1.99314
1.99313
1.99068
1.98705
1.98187
1.97272
1.9607
1.95353
1.95068
1.94862
1.94625
1.9434
1.9394
1.93226
1.92196
1.91425
1.91105
1.90891
1.90648
1.90282
1.89642
1.88542
1.87252
1.86522
1.86245
1.86064
1.85864
1.85556
1.85035
1.83996
1.83102
1.83127
1.84126
1.86579
1.90241
1.94082
1.94949
1.94849
1.93743
2.35023
2.37214
2.36398
2.336
2.31562
2.30681
2.31008
2.30809
2.31403
2.33828
2.33448
2.31271
2.28204
2.25499
2.2311
2.20162
2.16661
2.13841
2.1211
2.1022
2.07963
2.06545
2.05844
2.04888
2.03761
2.03001
2.02515
2.01918
2.01169
2.00543
2.0008
1.99787
1.99678
1.9949
1.99082
1.98593
1.98498
1.98576
1.98978
1.99545
1.99913
1.99969
1.99829
1.99732
1.99886
2.00112
2.00253
2.00121
1.9952
1.98736
1.98426
1.98418
1.98454
1.98311
1.9805
1.97561
1.96826
1.96398
1.96307
1.96282
1.96039
1.95772
1.95373
1.94654
1.93642
1.9283
1.92472
1.92244
1.92041
1.91862
1.916
1.91074
1.90151
1.89236
1.88791
1.88544
1.88305
1.87974
1.87389
1.86448
1.85325
1.84606
1.84298
1.84069
1.83851
1.83547
1.83184
1.82883
1.83308
1.85422
1.88642
1.91865
1.93934
1.9438
1.94226
1.93396
2.38699
2.38567
2.36751
2.34057
2.32599
2.32039
2.32062
2.31703
2.31975
2.33937
2.33532
2.31552
2.28881
2.26545
2.24381
2.21778
2.18692
2.1539
2.13085
2.11486
2.09436
2.07295
2.06042
2.04925
2.03606
2.02616
2.0189
2.01083
2.00137
1.99151
1.98425
1.97895
1.97523
1.97097
1.96513
1.95835
1.95227
1.94687
1.94695
1.94974
1.95362
1.95628
1.95678
1.95649
1.95881
1.96241
1.96554
1.96784
1.96624
1.95936
1.95505
1.953
1.95281
1.95309
1.95241
1.94956
1.94494
1.93743
1.93152
1.92926
1.92934
1.93163
1.93107
1.92818
1.92178
1.9113
1.90207
1.89921
1.89804
1.89641
1.89488
1.89299
1.88905
1.87972
1.86909
1.864
1.86133
1.85889
1.85581
1.85144
1.84428
1.83417
1.82568
1.82025
1.81778
1.81708
1.82021
1.82838
1.84927
1.88453
1.90848
1.9215
1.92741
1.93123
1.9309
1.92481
2.38686
2.38038
2.36346
2.34078
2.33024
2.32699
2.32442
2.32009
2.32021
2.33582
2.33169
2.31402
2.28991
2.26883
2.24921
2.22411
2.19559
2.16491
2.13666
2.11851
2.10216
2.0801
2.05959
2.04494
2.0311
2.0198
2.0105
2.00105
1.99015
1.97756
1.96781
1.9602
1.95381
1.9473
1.94062
1.93361
1.92469
1.91764
1.91284
1.90969
1.90909
1.91052
1.91199
1.91246
1.91577
1.92093
1.92604
1.932
1.93394
1.92904
1.92667
1.9265
1.92608
1.92849
1.92791
1.92652
1.9241
1.9177
1.90775
1.90263
1.90174
1.90464
1.90968
1.90921
1.90556
1.89919
1.88897
1.8791
1.87673
1.87749
1.87865
1.87706
1.87357
1.86594
1.85378
1.84589
1.84336
1.84063
1.8376
1.83441
1.83018
1.82255
1.81098
1.80156
1.80063
1.80267
1.81387
1.83672
1.88078
1.91322
1.9189
1.91597
1.91339
1.91396
1.91698
1.91282
2.37985
2.37152
2.35738
2.33804
2.32836
2.32684
2.3247
2.31839
2.31729
2.32735
2.32394
2.30903
2.28734
2.26706
2.24894
2.22573
2.19741
2.16962
2.14194
2.11936
2.10352
2.08497
2.06123
2.03943
2.02547
2.01426
2.0035
1.99304
1.981
1.9659
1.95347
1.94417
1.93607
1.92789
1.9199
1.91229
1.90315
1.89334
1.88656
1.88137
1.87785
1.8754
1.87444
1.87295
1.8738
1.87917
1.88507
1.8938
1.90244
1.90239
1.8996
1.9027
1.90183
1.90204
1.90641
1.90958
1.90828
1.90216
1.8941
1.88871
1.88434
1.88237
1.88314
1.88546
1.88712
1.88547
1.87978
1.87017
1.86102
1.85804
1.85715
1.85619
1.85536
1.85267
1.84493
1.83282
1.82258
1.82037
1.82022
1.82015
1.81699
1.81021
1.79895
1.78864
1.78882
1.79813
1.82318
1.86388
1.90968
1.92192
1.92
1.90995
1.90261
1.90028
1.90104
1.90016
2.3786
2.36907
2.3544
2.33326
2.32315
2.3227
2.32108
2.31297
2.30874
2.31547
2.31388
2.30195
2.28172
2.2616
2.24392
2.22323
2.19599
2.16835
2.14435
2.12086
2.10251
2.0858
2.06429
2.03887
2.02117
2.00994
1.99839
1.98654
1.97373
1.95751
1.94255
1.93193
1.92326
1.91493
1.90632
1.8979
1.88833
1.87756
1.86892
1.86359
1.85932
1.85585
1.85249
1.84826
1.84299
1.84285
1.84692
1.85397
1.8668
1.87562
1.87616
1.88317
1.88551
1.88383
1.88818
1.89316
1.89225
1.88882
1.88832
1.88561
1.8801
1.87399
1.87089
1.87036
1.87015
1.86983
1.86953
1.86624
1.85714
1.84752
1.84436
1.84297
1.84113
1.83904
1.83637
1.82753
1.81551
1.80914
1.80642
1.80346
1.79975
1.79623
1.79156
1.78655
1.78945
1.81131
1.85032
1.8936
1.91819
1.92016
1.91739
1.90852
1.8979
1.89343
1.89178
1.89074
2.39074
2.37551
2.35613
2.33466
2.32542
2.32339
2.31835
2.30579
2.29838
2.30295
2.30357
2.29415
2.27501
2.25478
2.23729
2.21854
2.19432
2.16639
2.14471
2.12328
2.10317
2.08622
2.06672
2.04214
2.02031
2.00761
1.99587
1.98287
1.96916
1.95293
1.93658
1.92529
1.91627
1.90834
1.90032
1.89147
1.88133
1.86908
1.85948
1.85435
1.8509
1.84751
1.84317
1.83717
1.82869
1.8213
1.82038
1.8226
1.83
1.8438
1.85094
1.8565
1.8683
1.87009
1.87362
1.88324
1.88388
1.88277
1.88434
1.88563
1.88387
1.87783
1.86865
1.86485
1.86407
1.86423
1.86369
1.86172
1.85722
1.84725
1.83784
1.83502
1.83318
1.83127
1.82909
1.82647
1.81865
1.80695
1.79909
1.79427
1.79002
1.7879
1.78927
1.79415
1.81502
1.85514
1.88828
1.90867
1.91864
1.91854
1.91541
1.90976
1.90073
1.89207
1.88846
1.88555
2.44558
2.41814
2.38394
2.35526
2.33916
2.33139
2.32014
2.30497
2.29777
2.29961
2.29985
2.28986
2.26983
2.24848
2.23073
2.21335
2.19238
2.16613
2.14518
2.12723
2.10648
2.08758
2.06949
2.04734
2.02323
2.00719
1.99568
1.98307
1.96873
1.95233
1.93522
1.92357
1.91492
1.90738
1.90059
1.89226
1.88106
1.86831
1.85776
1.85226
1.8486
1.84499
1.84067
1.8349
1.82657
1.81636
1.81136
1.81172
1.8131
1.81811
1.82577
1.83033
1.8412
1.85085
1.85576
1.869
1.87803
1.88122
1.88619
1.89044
1.89046
1.88637
1.87728
1.86869
1.8659
1.86498
1.86513
1.86369
1.85992
1.85334
1.84262
1.83389
1.83098
1.82899
1.82727
1.8241
1.82002
1.81141
1.79968
1.79015
1.78638
1.78772
1.79551
1.82051
1.87172
1.9061
1.91579
1.92046
1.92365
1.92381
1.92005
1.91547
1.90866
1.89842
1.89285
1.89055
2.53649
2.49085
2.44808
2.41223
2.3853
2.36728
2.3463
2.32593
2.3119
2.30975
2.30791
2.2958
2.2756
2.25544
2.23868
2.22035
2.19873
2.17357
2.14987
2.13269
2.11413
2.09368
2.07328
2.05308
2.03257
2.01562
2.00179
1.98968
1.9761
1.96008
1.94439
1.9329
1.92428
1.91658
1.90944
1.90136
1.89123
1.8784
1.8681
1.86263
1.85758
1.85243
1.84734
1.84174
1.83471
1.82563
1.81821
1.81481
1.81313
1.81224
1.81231
1.81349
1.81827
1.82869
1.83658
1.84757
1.86269
1.87487
1.88546
1.89573
1.89964
1.89943
1.89373
1.88283
1.87504
1.87174
1.87109
1.87128
1.86962
1.86483
1.85547
1.84283
1.83506
1.83176
1.82934
1.828
1.82429
1.81874
1.80714
1.79455
1.79243
1.79771
1.82322
1.87693
1.92685
1.94022
1.93705
1.93304
1.93159
1.9316
1.92957
1.92633
1.92173
1.91394
1.90675
1.90635
2.60688
2.56825
2.52686
2.48769
2.45561
2.42898
2.40305
2.37869
2.35849
2.34836
2.33989
2.32199
2.29898
2.27709
2.25935
2.24436
2.22524
2.20157
2.17794
2.16061
2.14334
2.12431
2.1043
2.08408
2.06696
2.05067
2.0347
2.01791
2.00264
1.99049
1.97915
1.9672
1.95657
1.94712
1.9375
1.92756
1.91754
1.90695
1.8957
1.8857
1.87729
1.87024
1.86394
1.85739
1.84941
1.84089
1.83422
1.82912
1.82413
1.81905
1.81328
1.80945
1.81014
1.81457
1.82061
1.82819
1.84011
1.85358
1.87073
1.88695
1.903
1.91043
1.91039
1.90391
1.8931
1.88657
1.88326
1.88339
1.88373
1.88098
1.87368
1.8618
1.84819
1.84084
1.83733
1.83554
1.83397
1.82702
1.81834
1.80859
1.80973
1.83226
1.88274
1.93668
1.96359
1.96539
1.95907
1.94839
1.94398
1.9418
1.94222
1.94296
1.94137
1.93762
1.93353
1.936
2.6417
2.61791
2.58979
2.56067
2.53272
2.50373
2.47364
2.4454
2.42226
2.40646
2.39058
2.36863
2.34499
2.32273
2.30314
2.28686
2.26653
2.24255
2.21774
2.1991
2.18235
2.16344
2.14449
2.1255
2.10597
2.08818
2.07228
2.05776
2.04362
2.02886
2.01314
1.99798
1.98456
1.9731
1.9629
1.95276
1.94239
1.93277
1.92373
1.91426
1.90479
1.89562
1.88657
1.87747
1.86824
1.86044
1.8541
1.84795
1.84063
1.83117
1.8208
1.81555
1.81313
1.81248
1.81335
1.81567
1.82172
1.82845
1.84067
1.86034
1.88189
1.90139
1.91817
1.91893
1.91448
1.90637
1.9003
1.89731
1.89708
1.89658
1.89179
1.88354
1.87089
1.85812
1.85196
1.84855
1.84609
1.84026
1.83425
1.83323
1.85152
1.90494
1.95201
1.9833
1.99312
1.99016
1.98202
1.97034
1.96272
1.96076
1.96059
1.96416
1.96847
1.96899
1.96797
1.97213
2.65208
2.63753
2.61987
2.60037
2.579
2.5554
2.53134
2.50923
2.49048
2.47418
2.4544
2.43084
2.40657
2.38251
2.3601
2.33962
2.31751
2.29314
2.26856
2.24884
2.23216
2.21297
2.19276
2.17272
2.15224
2.13275
2.11607
2.10103
2.08603
2.0701
2.05324
2.0364
2.021
2.00757
1.99555
1.98415
1.97308
1.96227
1.95149
1.94044
1.92894
1.91705
1.90535
1.89475
1.8859
1.87884
1.87188
1.86386
1.8539
1.84175
1.83096
1.82345
1.81781
1.81418
1.81142
1.81024
1.81092
1.81216
1.81291
1.82218
1.8422
1.86873
1.89675
1.91678
1.92432
1.92277
1.91756
1.91222
1.90905
1.90824
1.90741
1.9026
1.89458
1.88239
1.87049
1.86404
1.85923
1.85432
1.85825
1.87527
1.93635
1.98801
2.00656
2.01377
2.01477
2.01055
2.00554
1.99846
1.99059
1.98856
1.98822
1.99135
2.00013
2.00655
2.00722
2.01021
2.65142
2.64021
2.62858
2.61557
2.60057
2.58442
2.56759
2.55093
2.53479
2.51762
2.49842
2.47762
2.4562
2.43489
2.41496
2.39489
2.37177
2.34582
2.32044
2.29932
2.28114
2.26139
2.23988
2.2178
2.1959
2.1749
2.15649
2.13984
2.12336
2.10635
2.0886
2.07057
2.05342
2.03776
2.02341
2.01016
1.99761
1.98524
1.97268
1.95979
1.94651
1.93314
1.92055
1.90947
1.90027
1.89192
1.88294
1.87264
1.86098
1.84959
1.83965
1.82978
1.8206
1.81443
1.81035
1.80711
1.80455
1.80197
1.79871
1.79648
1.80253
1.8214
1.85141
1.88862
1.90667
1.92199
1.92748
1.92354
1.91823
1.91679
1.9171
1.9172
1.91293
1.90529
1.89154
1.87835
1.87144
1.87347
1.88764
1.95241
2.02696
2.04615
2.04165
2.03723
2.0351
2.03287
2.03014
2.02601
2.02014
2.01813
2.01925
2.02431
2.03504
2.0443
2.04546
2.04336
2.65103
2.64112
2.63094
2.6203
2.60865
2.59643
2.58345
2.56981
2.55513
2.53906
2.52246
2.50508
2.48696
2.46879
2.45056
2.43008
2.40627
2.38141
2.35844
2.33877
2.32103
2.30106
2.27859
2.25414
2.23149
2.21055
2.1908
2.17229
2.15424
2.13587
2.11686
2.09777
2.07957
2.06252
2.04625
2.03049
2.01528
2.00061
1.98617
1.97203
1.95827
1.94501
1.93231
1.92003
1.90844
1.89763
1.88702
1.87631
1.86587
1.85632
1.84684
1.83612
1.82434
1.81441
1.80849
1.80465
1.8012
1.79798
1.79432
1.78874
1.78475
1.78878
1.8032
1.83274
1.86877
1.89101
1.91393
1.9251
1.92292
1.92141
1.92123
1.92319
1.92323
1.91891
1.90931
1.89254
1.88681
1.89674
1.95348
2.04442
2.08063
2.07938
2.06745
2.0602
2.05632
2.05471
2.05434
2.05213
2.0492
2.04848
2.05188
2.0578
2.06649
2.07364
2.07442
2.06975
2.65145
2.64127
2.63079
2.61989
2.6087
2.59728
2.58554
2.57361
2.56062
2.54644
2.53174
2.51666
2.50122
2.48519
2.46748
2.44731
2.42527
2.40314
2.38299
2.36545
2.347
2.3256
2.30167
2.27702
2.25603
2.23613
2.21615
2.1964
2.17653
2.15592
2.13515
2.11551
2.09728
2.07988
2.06263
2.04519
2.02772
2.01077
1.99482
1.98009
1.96653
1.95383
1.94107
1.92738
1.91299
1.89931
1.88786
1.87834
1.8698
1.86134
1.85196
1.84116
1.82863
1.81567
1.80605
1.80112
1.79735
1.79395
1.7903
1.78565
1.77766
1.76998
1.77105
1.78096
1.80722
1.8415
1.87001
1.90367
1.91991
1.91972
1.92066
1.92155
1.9242
1.92324
1.91735
1.90666
1.9088
1.95268
2.04499
2.10198
2.10607
2.09965
2.08681
2.07866
2.07558
2.07411
2.0769
2.08086
2.08258
2.08449
2.08443
2.08557
2.08872
2.09163
2.09178
2.08613
2.65282
2.64215
2.63138
2.62036
2.60926
2.59794
2.5863
2.57409
2.56112
2.54781
2.53424
2.52037
2.50623
2.49114
2.47402
2.45492
2.43486
2.4151
2.39699
2.37992
2.3596
2.33671
2.31211
2.29064
2.27174
2.25263
2.23292
2.2124
2.18991
2.16653
2.14511
2.12586
2.10793
2.09075
2.07356
2.05548
2.03624
2.01701
1.9998
1.98496
1.97167
1.95935
1.94701
1.93314
1.91671
1.89961
1.88673
1.87833
1.87157
1.86496
1.85696
1.8457
1.83119
1.8165
1.80502
1.79727
1.79262
1.78842
1.78408
1.77891
1.76996
1.75952
1.75344
1.75341
1.76125
1.78472
1.8153
1.8513
1.89038
1.9083
1.91027
1.91442
1.91935
1.92073
1.91808
1.91994
1.95162
2.04042
2.1093
2.12471
2.12096
2.11308
2.10239
2.09517
2.09334
2.09715
2.1063
2.11235
2.1149
2.11458
2.11214
2.10852
2.10536
2.103
2.10068
2.09411
2.65574
2.64475
2.63381
2.62266
2.6114
2.59985
2.58797
2.57546
2.56264
2.54974
2.5367
2.52339
2.50936
2.49364
2.47625
2.45789
2.43938
2.42162
2.40537
2.38683
2.36507
2.34115
2.3182
2.29859
2.28095
2.26255
2.24272
2.22086
2.19635
2.17214
2.15126
2.13269
2.11497
2.09762
2.08061
2.06269
2.04207
2.02073
2.00261
1.98793
1.9749
1.96223
1.94946
1.93572
1.91933
1.90182
1.88788
1.87771
1.86952
1.86185
1.8539
1.84418
1.83141
1.81773
1.80589
1.79566
1.78734
1.7817
1.77653
1.77078
1.76359
1.75478
1.7457
1.73935
1.73858
1.74492
1.76336
1.79131
1.8293
1.87015
1.88823
1.89827
1.90773
1.91308
1.91763
1.94197
2.02565
2.1086
2.13589
2.137
2.13139
2.1238
2.11876
2.11833
2.11948
2.1233
2.12717
2.13027
2.13258
2.13151
2.12851
2.12294
2.11645
2.11044
2.10525
2.09688
2.65977
2.64862
2.63761
2.62634
2.61485
2.60307
2.59096
2.57842
2.56584
2.55329
2.54059
2.52726
2.5125
2.496
2.47851
2.46082
2.44346
2.42696
2.41068
2.3906
2.36824
2.34513
2.32431
2.30527
2.28736
2.26818
2.24739
2.22444
2.20014
2.17727
2.15691
2.13831
2.12106
2.10438
2.08659
2.06625
2.04464
2.02385
2.00505
1.98906
1.97654
1.9656
1.95361
1.93898
1.922
1.90502
1.88997
1.87727
1.86734
1.85956
1.85158
1.84246
1.83168
1.8192
1.80731
1.79557
1.78487
1.77634
1.76955
1.76323
1.75723
1.75079
1.74428
1.73703
1.72859
1.72683
1.73053
1.74317
1.76806
1.80499
1.84622
1.87406
1.88999
1.90111
1.92146
1.99112
2.08932
2.14096
2.14855
2.14611
2.14068
2.13771
2.13801
2.14141
2.14402
2.14386
2.14195
2.14155
2.14198
2.13964
2.13539
2.12968
2.12225
2.11519
2.10823
2.09783
2.66364
2.65255
2.64161
2.63036
2.61886
2.60711
2.59508
2.58282
2.57042
2.55777
2.54465
2.53065
2.51541
2.49917
2.48236
2.4653
2.44843
2.43195
2.41366
2.39289
2.37112
2.35029
2.33057
2.31155
2.2918
2.27112
2.24892
2.22565
2.20329
2.18282
2.16355
2.14475
2.12619
2.10707
2.08663
2.06557
2.04562
2.02755
2.01069
1.99417
1.9777
1.96256
1.94823
1.93358
1.92011
1.90794
1.89512
1.88168
1.86752
1.85476
1.84445
1.83478
1.82613
1.81888
1.81028
1.79922
1.78638
1.77346
1.76401
1.75744
1.75213
1.74816
1.7439
1.73744
1.72726
1.71608
1.71384
1.7155
1.72654
1.74951
1.78735
1.83391
1.87005
1.8963
1.94959
2.04861
2.12311
2.15315
2.15581
2.15359
2.15136
2.15132
2.15474
2.16068
2.16217
2.15957
2.1544
2.15113
2.14711
2.14213
2.13638
2.13051
2.1244
2.11787
2.11048
2.09839
2.66568
2.65479
2.64399
2.63284
2.62143
2.60978
2.59787
2.58577
2.57341
2.56059
2.54707
2.5327
2.51757
2.50188
2.48577
2.46921
2.45226
2.43456
2.41444
2.39352
2.37352
2.35455
2.33606
2.31593
2.29467
2.27189
2.24904
2.22734
2.20714
2.1881
2.16932
2.14992
2.12882
2.10646
2.0849
2.06514
2.04726
2.03131
2.01616
2.0005
1.98303
1.9631
1.94464
1.92971
1.91706
1.9062
1.89634
1.88524
1.87097
1.85391
1.83984
1.82979
1.82136
1.81368
1.80672
1.79944
1.78885
1.77403
1.76204
1.75437
1.74827
1.74363
1.73952
1.73496
1.72741
1.7143
1.7077
1.70701
1.70957
1.72118
1.74534
1.78609
1.84201
1.90344
1.99417
2.08727
2.14089
2.16165
2.16508
2.16579
2.16548
2.16484
2.16604
2.17008
2.17111
2.16814
2.16291
2.15628
2.14871
2.14159
2.13517
2.12934
2.12408
2.11864
2.1122
2.09886
2.66671
2.65596
2.64519
2.63406
2.62269
2.61107
2.59924
2.58715
2.57464
2.56154
2.54777
2.53345
2.51877
2.50385
2.48855
2.47249
2.4548
2.43507
2.41463
2.39463
2.37574
2.35825
2.33931
2.31825
2.29583
2.27162
2.24877
2.22901
2.2103
2.19184
2.17308
2.15266
2.12937
2.1045
2.08213
2.06431
2.04942
2.03547
2.02104
2.00422
1.98313
1.95947
1.93895
1.92522
1.91542
1.90676
1.89804
1.88731
1.87111
1.84999
1.83338
1.82415
1.81777
1.81228
1.80682
1.80014
1.78885
1.77163
1.75776
1.75118
1.7467
1.74255
1.73825
1.73312
1.72485
1.71118
1.70323
1.70068
1.70076
1.70629
1.72168
1.75398
1.81664
1.91189
2.02621
2.11007
2.15055
2.16926
2.1751
2.17756
2.17731
2.17686
2.17726
2.18052
2.18182
2.178
2.17051
2.15965
2.14931
2.14049
2.13389
2.12817
2.12311
2.118
2.11262
2.09895
)
;

boundaryField
{
    inlet
    {
        type            fixedValue;
        value           uniform 1;
    }
    outlet
    {
        type            inletOutlet;
        inletValue      uniform 1;
        value           nonuniform List<scalar> 
32
(
2.14024
2.1301
2.11031
2.07796
2.02768
1.98854
1.9632
1.9502
1.94372
1.93909
1.93617
1.93558
1.93303
1.92485
1.91328
1.9009
1.89163
1.88597
1.89074
1.9059
1.93533
1.97156
2.00969
2.04263
2.06908
2.08596
2.09427
2.09714
2.09796
2.09823
2.0983
2.09816
)
;
    }
    bottom
    {
        type            symmetryPlane;
    }
    top
    {
        type            symmetryPlane;
    }
    obstacle
    {
        type            zeroGradient;
    }
    defaultFaces
    {
        type            empty;
    }
}


// ************************************************************************* //
