/*--------------------------------*- C++ -*----------------------------------*\
  =========                 |
  \\      /  F ield         | OpenFOAM: The Open Source CFD Toolbox
   \\    /   O peration     | Website:  https://openfoam.org
    \\  /    A nd           | Version:  7
     \\/     M anipulation  |
\*---------------------------------------------------------------------------*/
FoamFile
{
    version     2.0;
    format      ascii;
    class       volVectorField;
    location    "14.5";
    object      U;
}
// * * * * * * * * * * * * * * * * * * * * * * * * * * * * * * * * * * * * * //

dimensions      [0 1 -1 0 0 0 0];

internalField   nonuniform List<vector> 
4032
(
(3 -2.65177e-17 0)
(3 -2.37603e-17 0)
(3 9.83197e-18 0)
(3 5.3673e-16 0)
(3 7.44189e-16 0)
(3 6.65374e-16 0)
(3 4.34701e-16 0)
(3 3.59753e-16 0)
(3 3.56019e-16 0)
(3 5.4143e-16 0)
(3 4.09248e-16 0)
(2.97657 0.00350574 0)
(1.04847 0.0187637 0)
(0.712416 0.0177908 0)
(0.660957 0.0218449 0)
(0.603049 0.0238976 0)
(0.543929 0.0257577 0)
(0.482248 0.0276072 0)
(0.41802 0.0294799 0)
(0.350955 0.0314515 0)
(0.280954 0.0334961 0)
(0.207045 0.0362958 0)
(0.128434 0.0383795 0)
(0.0474941 0.043074 0)
(3 -2.95075e-17 0)
(3 7.72749e-18 0)
(3 2.50561e-16 0)
(3 5.66051e-16 0)
(3 6.50938e-16 0)
(3 6.4936e-16 0)
(3 1.96337e-16 0)
(3 -2.2881e-16 0)
(3 -4.07038e-16 0)
(3 -2.96621e-17 0)
(3 2.45594e-16 0)
(2.98927 0.00476253 0)
(1.06787 0.0784195 0)
(0.713936 0.0647122 0)
(0.659539 0.0707475 0)
(0.600361 0.0764999 0)
(0.539872 0.0817482 0)
(0.477064 0.0873296 0)
(0.411687 0.0930882 0)
(0.343485 0.0991476 0)
(0.27257 0.1051 0)
(0.198695 0.113117 0)
(0.121137 0.118767 0)
(0.0438968 0.130318 0)
(3 -3.10145e-17 0)
(3 2.05968e-16 0)
(3 1.29867e-16 0)
(3 -3.50221e-16 0)
(3 -5.36505e-16 0)
(3 -4.64576e-16 0)
(3 -5.40486e-16 0)
(3 -7.26725e-16 0)
(3 -7.69686e-16 0)
(3 -4.14885e-16 0)
(3 -3.0065e-16 0)
(3.0007 0.001192 0)
(1.13139 0.126252 0)
(0.728924 0.106978 0)
(0.673758 0.11812 0)
(0.615462 0.127785 0)
(0.555386 0.136541 0)
(0.49307 0.146094 0)
(0.427744 0.156129 0)
(0.358817 0.166784 0)
(0.285814 0.176924 0)
(0.20887 0.190084 0)
(0.126631 0.198555 0)
(0.0458977 0.214387 0)
(3 1.52182e-17 0)
(3 -2.23901e-16 0)
(3 -6.9739e-16 0)
(3 -1.39927e-15 0)
(3 -1.02139e-15 0)
(3 -1.06128e-15 0)
(3 -7.74129e-16 0)
(3 -5.6157e-16 0)
(3 -4.33177e-16 0)
(3 -4.8848e-16 0)
(3 -6.89636e-16 0)
(3.00004 3.35018e-06 0)
(1.22812 0.176265 0)
(0.73864 0.152375 0)
(0.67836 0.166207 0)
(0.62171 0.179319 0)
(0.563255 0.191219 0)
(0.503192 0.204928 0)
(0.439474 0.220115 0)
(0.370782 0.237171 0)
(0.296096 0.253451 0)
(0.217073 0.273339 0)
(0.131553 0.285976 0)
(0.0465224 0.304865 0)
(3 6.5499e-17 0)
(3 -2.77091e-16 0)
(3 -8.76741e-16 0)
(3 -4.5452e-16 0)
(3 -5.28164e-16 0)
(3 -4.79722e-16 0)
(3 -5.65557e-16 0)
(3 -3.05116e-16 0)
(3 -4.29647e-16 0)
(3 -4.79185e-16 0)
(3 -5.31181e-16 0)
(3 -5.66797e-09 0)
(1.38013 0.227776 0)
(0.754706 0.202584 0)
(0.683769 0.21414 0)
(0.62986 0.22897 0)
(0.574485 0.243257 0)
(0.51854 0.261126 0)
(0.459107 0.282185 0)
(0.39497 0.306901 0)
(0.323328 0.330176 0)
(0.245432 0.357816 0)
(0.153753 0.378741 0)
(0.0577035 0.40519 0)
(3 -4.37889e-17 0)
(3 1.21759e-16 0)
(3 1.16711e-16 0)
(3 1.30931e-16 0)
(3 -5.0751e-17 0)
(3 -3.02308e-16 0)
(3 -5.40592e-16 0)
(3 -2.45193e-16 0)
(3 -5.7719e-16 0)
(3 -5.66923e-16 0)
(3 -5.75842e-16 0)
(3 -3.1277e-09 0)
(1.60548 0.277794 0)
(0.7804 0.262031 0)
(0.687917 0.262411 0)
(0.634654 0.27635 0)
(0.582443 0.291836 0)
(0.532449 0.313288 0)
(0.479925 0.340081 0)
(0.422164 0.373998 0)
(0.351549 0.409656 0)
(0.268927 0.453174 0)
(0.169499 0.492829 0)
(0.0572478 0.52943 0)
(3 -2.70052e-16 0)
(3 -1.74406e-16 0)
(3 2.895e-16 0)
(3 -4.36379e-16 0)
(3 -6.13508e-16 0)
(3 -9.85702e-16 0)
(3 -1.08452e-15 0)
(3 -9.27254e-16 0)
(3 -9.58034e-16 0)
(3 -1.5414e-15 0)
(3 -1.33117e-15 0)
(3 -6.48353e-10 0)
(1.92688 0.328646 0)
(0.820493 0.337676 0)
(0.695371 0.321951 0)
(0.641201 0.327925 0)
(0.590719 0.340934 0)
(0.54522 0.363287 0)
(0.499132 0.394674 0)
(0.452157 0.438777 0)
(0.393566 0.49047 0)
(0.326954 0.549528 0)
(0.236851 0.607833 0)
(0.103781 0.67435 0)
(3 1.46576e-16 0)
(3 -1.2964e-18 0)
(3 -3.27688e-17 0)
(3 9.36301e-17 0)
(3 -3.1628e-16 0)
(3 -3.40861e-16 0)
(3 -6.44984e-16 0)
(3 -5.59581e-16 0)
(3 -3.70095e-16 0)
(3 -8.23269e-16 0)
(3 -4.42606e-16 0)
(3 -7.31277e-11 0)
(2.39893 0.334383 0)
(0.910808 0.427244 0)
(0.750189 0.377614 0)
(0.694709 0.381582 0)
(0.637435 0.390997 0)
(0.587382 0.411804 0)
(0.541601 0.445418 0)
(0.499605 0.4947 0)
(0.455671 0.557322 0)
(0.397558 0.644601 0)
(0.283036 0.770168 0)
(0.159921 0.945442 0)
(3 1.247e-16 0)
(3 5.25771e-16 0)
(3 3.50607e-16 0)
(3 7.96293e-16 0)
(3 6.42132e-16 0)
(3 4.18121e-16 0)
(3 3.48688e-16 0)
(3 -1.75914e-16 0)
(3 -6.58607e-17 0)
(3 1.57152e-16 0)
(3 5.0948e-16 0)
(3 -3.27142e-12 0)
(2.96016 0.145629 0)
(1.10042 0.466414 0)
(0.84745 0.409529 0)
(0.790742 0.426177 0)
(0.721666 0.442509 0)
(0.660732 0.461466 0)
(0.609945 0.493575 0)
(0.567259 0.543857 0)
(0.532627 0.621229 0)
(0.501293 0.748873 0)
(0.479876 0.930851 0)
(0.59879 1.24384 0)
(3 1.60472e-16 0)
(3 5.10047e-16 0)
(3 6.51273e-16 0)
(3 7.59802e-16 0)
(3 5.03506e-16 0)
(3 -6.03797e-17 0)
(3 1.06603e-16 0)
(3 4.96244e-16 0)
(3 5.92517e-16 0)
(3 5.99628e-16 0)
(3 -1.7761e-16 0)
(3 -8.03506e-14 0)
(3.03664 0.00712002 0)
(1.29961 0.439887 0)
(0.880644 0.471338 0)
(0.841012 0.500147 0)
(0.782775 0.512538 0)
(0.727934 0.526375 0)
(0.682104 0.553186 0)
(0.642586 0.598706 0)
(0.62685 0.678482 0)
(0.629051 0.810997 0)
(0.701921 0.965843 0)
(0.987444 1.15757 0)
(3 -7.01896e-17 0)
(3 -1.32768e-16 0)
(3 1.92726e-16 0)
(3 5.14515e-16 0)
(3 5.42776e-16 0)
(3 5.16241e-16 0)
(3 3.6377e-16 0)
(3 4.70017e-16 0)
(3 9.32715e-16 0)
(3 1.47429e-15 0)
(3 1.39636e-15 0)
(3 -3.69513e-16 0)
(3.00096 -1.40956e-05 0)
(1.61211 0.465279 0)
(0.873278 0.514412 0)
(0.838822 0.542465 0)
(0.811587 0.566886 0)
(0.782812 0.582298 0)
(0.754594 0.607006 0)
(0.727858 0.643701 0)
(0.728942 0.712859 0)
(0.756829 0.82534 0)
(0.883203 0.951409 0)
(1.17518 1.06297 0)
(3 -7.71587e-17 0)
(3 -3.6872e-16 0)
(3 -1.79928e-16 0)
(3 -1.90849e-16 0)
(3 1.70095e-16 0)
(3 5.28389e-16 0)
(3 3.57749e-16 0)
(3 -2.43744e-16 0)
(3 -9.25978e-16 0)
(3 -6.48449e-16 0)
(3 7.64813e-17 0)
(3 9.3117e-16 0)
(3.00001 -1.61587e-06 0)
(2.27356 0.467108 0)
(0.966225 0.588895 0)
(0.86703 0.553599 0)
(0.862983 0.582473 0)
(0.846127 0.614001 0)
(0.830518 0.648098 0)
(0.818291 0.68322 0)
(0.828472 0.741477 0)
(0.875872 0.825098 0)
(1.01489 0.922321 0)
(1.26808 0.986017 0)
(3 7.81648e-17 0)
(3 -9.6776e-17 0)
(3 -2.72047e-16 0)
(3 -6.63127e-16 0)
(3 -4.37506e-16 0)
(3 2.17589e-17 0)
(3 4.63554e-16 0)
(3 1.49471e-16 0)
(3 -6.52344e-16 0)
(3 -1.67548e-15 0)
(3 -2.21584e-15 0)
(3 -1.20305e-15 0)
(3 -4.127e-07 0)
(3.05184 0.134972 0)
(1.22395 0.601979 0)
(0.946254 0.561749 0)
(0.937887 0.613093 0)
(0.918519 0.644364 0)
(0.907027 0.679517 0)
(0.906761 0.71436 0)
(0.921647 0.763153 0)
(0.981004 0.826845 0)
(1.11365 0.897591 0)
(1.32899 0.938545 0)
(3 -1.6264e-16 0)
(3 -1.97722e-16 0)
(3 -6.05366e-16 0)
(3 -2.54458e-16 0)
(3 1.79375e-16 0)
(3 1.12757e-15 0)
(3 8.59312e-16 0)
(3 6.79013e-16 0)
(3 9.04318e-17 0)
(3 -4.84885e-16 0)
(3 -1.02956e-15 0)
(3 -5.00392e-16 0)
(3 -3.97431e-08 0)
(3.03138 0.00213645 0)
(1.49195 0.586306 0)
(0.972285 0.645085 0)
(0.950457 0.660178 0)
(0.939339 0.681881 0)
(0.950732 0.712822 0)
(0.970845 0.748351 0)
(1.00292 0.783266 0)
(1.06878 0.826757 0)
(1.18479 0.870435 0)
(1.35449 0.894302 0)
(3 1.36303e-16 0)
(3 3.18232e-16 0)
(3 -1.17157e-16 0)
(3 1.25571e-16 0)
(3 -9.51501e-17 0)
(3 -2.32231e-16 0)
(3 -3.06662e-16 0)
(3 2.49337e-16 0)
(3 9.30343e-16 0)
(3 1.08305e-15 0)
(3 1.44301e-15 0)
(3 1.16552e-15 0)
(3 -1.21865e-09 0)
(3.00051 -9.24056e-06 0)
(2.19957 0.559784 0)
(1.06145 0.717889 0)
(0.990008 0.678868 0)
(0.979927 0.692306 0)
(0.996194 0.717692 0)
(1.02361 0.753982 0)
(1.06925 0.791858 0)
(1.14114 0.829622 0)
(1.24232 0.860518 0)
(1.37874 0.874259 0)
(3 2.48729e-16 0)
(3 2.14047e-16 0)
(3 4.08777e-16 0)
(3 -2.31801e-16 0)
(3 -1.05368e-15 0)
(3 -1.4268e-15 0)
(3 -3.22815e-16 0)
(3 -7.67052e-17 0)
(3 5.9275e-16 0)
(3 7.63368e-16 0)
(3 7.69883e-16 0)
(3 1.31834e-15 0)
(3 -3.17832e-12 0)
(3.00004 -1.69232e-05 0)
(3.0537 0.132725 0)
(1.36881 0.69837 0)
(1.07411 0.702985 0)
(1.06431 0.706129 0)
(1.06339 0.731332 0)
(1.08186 0.761975 0)
(1.12436 0.792034 0)
(1.19325 0.82329 0)
(1.28231 0.845634 0)
(1.39644 0.854107 0)
(3 5.45829e-17 0)
(3 8.59924e-17 0)
(3 7.82855e-16 0)
(3 1.57389e-16 0)
(3 1.9312e-16 0)
(3 -2.72063e-16 0)
(3 7.99636e-18 0)
(3 1.39377e-16 0)
(3 2.01886e-16 0)
(3 2.09193e-16 0)
(3 -8.34846e-18 0)
(3 -2.36704e-16 0)
(3 -4.74035e-15 0)
(3 -3.69628e-06 0)
(3.02341 0.001551 0)
(1.75348 0.665312 0)
(1.10408 0.765556 0)
(1.0924 0.763158 0)
(1.107 0.770275 0)
(1.13082 0.786411 0)
(1.17194 0.80617 0)
(1.23627 0.826883 0)
(1.31516 0.842181 0)
(1.41382 0.847451 0)
(3 1.09678e-16 0)
(3 -5.37222e-17 0)
(3 -6.14214e-17 0)
(3 5.81412e-16 0)
(3 9.40168e-16 0)
(3 5.62943e-16 0)
(3 3.73178e-16 0)
(3 -1.75025e-16 0)
(3 -2.29651e-16 0)
(3 -1.94893e-16 0)
(3 -8.29609e-16 0)
(3 -1.77587e-15 0)
(3 -1.01519e-15 0)
(3 -3.0469e-07 0)
(3.00026 9.56997e-06 0)
(2.72933 0.379152 0)
(1.27158 0.786223 0)
(1.13864 0.768199 0)
(1.16165 0.770414 0)
(1.18323 0.789404 0)
(1.21863 0.807512 0)
(1.27567 0.823973 0)
(1.34439 0.83583 0)
(1.43052 0.838414 0)
(3 -5.92112e-17 0)
(3 -2.24101e-16 0)
(3 -5.29134e-16 0)
(3 6.85704e-18 0)
(3 3.92097e-16 0)
(3 1.05774e-15 0)
(3 6.93633e-16 0)
(3 -1.97974e-16 0)
(3 -8.26049e-16 0)
(3 -4.35185e-16 0)
(3 -3.05139e-16 0)
(3 -2.87156e-16 0)
(3 4.92181e-16 0)
(3 -1.69807e-09 0)
(3.00002 -8.56152e-06 0)
(3.06188 0.0231315 0)
(1.6546 0.742372 0)
(1.17991 0.807932 0)
(1.20286 0.806355 0)
(1.21839 0.816776 0)
(1.25539 0.826283 0)
(1.30699 0.836935 0)
(1.36638 0.843499 0)
(1.43562 0.83757 0)
(3 4.01324e-17 0)
(3 5.27297e-16 0)
(3 4.68752e-16 0)
(3 -1.58654e-16 0)
(3 -9.88166e-17 0)
(3 -4.01343e-17 0)
(3 -8.64476e-17 0)
(3 -3.33266e-17 0)
(3 -4.31657e-16 0)
(3 -7.38805e-16 0)
(3 -2.14537e-16 0)
(3 -4.76472e-17 0)
(3 3.4197e-16 0)
(3 -2.60796e-12 0)
(3 -1.87689e-06 0)
(3.00239 0.000422527 0)
(2.56269 0.513667 0)
(1.30966 0.858848 0)
(1.2384 0.833429 0)
(1.2624 0.82844 0)
(1.29465 0.83488 0)
(1.3378 0.838732 0)
(1.37794 0.831465 0)
(1.41823 0.794855 0)
(3 7.81926e-18 0)
(3 2.1335e-16 0)
(3 3.78183e-16 0)
(3 1.30402e-16 0)
(3 1.2453e-16 0)
(3 7.38134e-17 0)
(3 3.52269e-16 0)
(3 6.82958e-17 0)
(3 -7.47815e-16 0)
(3 -1.19992e-15 0)
(3 -1.14548e-15 0)
(3 -9.5347e-16 0)
(3 -4.05159e-16 0)
(3 -5.32158e-16 0)
(3 -1.56817e-07 0)
(3 7.51103e-07 0)
(3.06098 0.050162 0)
(1.74215 0.796697 0)
(1.28616 0.849442 0)
(1.31947 0.853045 0)
(1.33839 0.855087 0)
(1.35392 0.844864 0)
(1.36072 0.792061 0)
(1.36324 0.710813 0)
(3 -3.12198e-17 0)
(3 -3.70332e-16 0)
(3 -1.7442e-16 0)
(3 -1.4667e-16 0)
(3 -3.0768e-16 0)
(3 -2.65165e-16 0)
(3 2.05221e-16 0)
(3 -2.76397e-16 0)
(3 -5.59412e-16 0)
(3 -5.95974e-16 0)
(3 -8.06587e-16 0)
(3 -9.99852e-16 0)
(3 -9.51271e-16 0)
(3 -8.02544e-16 0)
(3 -9.93527e-10 0)
(3 -1.21179e-07 0)
(3.00392 0.00156377 0)
(2.65533 0.479494 0)
(1.45591 0.893825 0)
(1.37146 0.898948 0)
(1.36422 0.876114 0)
(1.33978 0.809151 0)
(1.31307 0.704159 0)
(1.30259 0.613793 0)
(3 -6.51934e-17 0)
(3 -8.56119e-17 0)
(3 -2.63196e-16 0)
(3 -5.3157e-17 0)
(3 -3.66725e-16 0)
(3 -1.20408e-15 0)
(3 -1.6779e-15 0)
(3 -1.74109e-15 0)
(3 -1.78326e-15 0)
(3 -1.60929e-15 0)
(3 -8.05953e-16 0)
(3 -8.36541e-16 0)
(3 -1.18239e-15 0)
(3 -9.31504e-16 0)
(3 -1.88558e-12 0)
(3 -2.61421e-08 0)
(3.00001 8.27282e-06 0)
(3.03925 0.0387092 0)
(1.96033 0.786187 0)
(1.40957 0.935688 0)
(1.34156 0.836533 0)
(1.29957 0.719716 0)
(1.28415 0.620347 0)
(1.29203 0.558541 0)
(3 3.5901e-17 0)
(3 -5.56892e-17 0)
(3 -3.64934e-16 0)
(3 -2.75648e-16 0)
(3 -3.53793e-16 0)
(3 -3.70557e-16 0)
(3 -8.3361e-16 0)
(3 -1.23336e-15 0)
(3 -1.21495e-15 0)
(3 -9.32646e-16 0)
(3 -1.02836e-15 0)
(3 4.47597e-16 0)
(3 6.39173e-16 0)
(3 5.9995e-16 0)
(3 -5.35931e-16 0)
(3 -2.52232e-09 0)
(3 -1.34871e-10 0)
(3.00155 0.00155531 0)
(2.8682 0.332665 0)
(1.58567 0.935362 0)
(1.24804 0.712943 0)
(1.24674 0.632437 0)
(1.26223 0.583755 0)
(1.30195 0.538028 0)
(3 -2.4205e-16 0)
(3 -6.46196e-16 0)
(3 -4.51024e-16 0)
(3 -4.97404e-16 0)
(3 -2.19467e-16 0)
(3 -2.35181e-16 0)
(3 -4.42321e-16 0)
(3 -3.734e-16 0)
(3 6.71519e-16 0)
(3 6.99753e-16 0)
(3 5.3132e-16 0)
(3 1.03254e-15 0)
(3 1.17462e-15 0)
(3 6.92708e-16 0)
(3 6.82568e-16 0)
(3 -3.95226e-11 0)
(3 -1.5376e-10 0)
(3 7.22506e-06 0)
(3.02713 0.0177095 0)
(1.88207 0.65535 0)
(1.17035 0.611899 0)
(1.17994 0.580469 0)
(1.2456 0.5525 0)
(1.29777 0.519956 0)
(3 -5.08919e-16 0)
(3 -8.31213e-16 0)
(3 -3.70143e-16 0)
(3 -3.45366e-16 0)
(3 7.76814e-18 0)
(3 -4.31365e-16 0)
(3 -4.3208e-16 0)
(3 -3.01226e-16 0)
(3 2.07252e-16 0)
(3 3.63392e-16 0)
(3 5.25402e-16 0)
(3 3.3463e-16 0)
(3 7.27619e-16 0)
(3 4.63115e-16 0)
(3 4.50989e-16 0)
(3 -2.10816e-13 0)
(3 -2.05388e-11 0)
(3 4.38923e-09 0)
(3.00045 0.000387249 0)
(2.10898 0.302638 0)
(1.041 0.450027 0)
(1.11427 0.480907 0)
(1.22129 0.480325 0)
(1.28366 0.482324 0)
(3 -7.36975e-17 0)
(3 -2.52731e-16 0)
(3 -3.55518e-16 0)
(3 1.09946e-16 0)
(3 1.6231e-16 0)
(3 3.97396e-16 0)
(3 6.63943e-16 0)
(3 7.88971e-16 0)
(3 4.6814e-17 0)
(3 2.65072e-17 0)
(3 -5.74372e-16 0)
(3 -1.08493e-15 0)
(3 -9.20229e-16 0)
(3 -1.20046e-15 0)
(3 -1.05001e-15 0)
(3 -5.44747e-16 0)
(3 -1.57606e-12 0)
(3 -7.06612e-13 0)
(3 4.85154e-07 0)
(2.14133 0.215764 0)
(0.895359 0.341282 0)
(0.9512 0.428118 0)
(1.09857 0.452913 0)
(1.20166 0.463392 0)
(3 2.04917e-16 0)
(3 1.11201e-15 0)
(3 9.32368e-16 0)
(3 5.2177e-16 0)
(3 2.02628e-16 0)
(3 2.74128e-16 0)
(3 3.75553e-17 0)
(3 4.56665e-16 0)
(3 -5.51455e-17 0)
(3 -5.42949e-17 0)
(3 -2.15032e-17 0)
(3 -7.96769e-16 0)
(3 -1.9955e-15 0)
(3 -1.69598e-15 0)
(3 -1.31863e-15 0)
(3 -4.68216e-16 0)
(3 -2.58479e-14 0)
(3 -2.67284e-13 0)
(3 1.25763e-10 0)
(2.29873 0.216094 0)
(0.874016 0.280208 0)
(0.835994 0.322598 0)
(0.955439 0.342255 0)
(1.06347 0.366121 0)
(3 3.07534e-16 0)
(3 6.3943e-16 0)
(3 9.18275e-16 0)
(3 4.65538e-16 0)
(3 1.28415e-16 0)
(3 -9.0799e-18 0)
(3 -6.78937e-17 0)
(3 1.61754e-17 0)
(3 -5.04001e-16 0)
(3 -7.9392e-16 0)
(3 -7.96299e-16 0)
(3 -8.61129e-16 0)
(3 -9.6762e-16 0)
(3 -7.42844e-16 0)
(3 -7.31941e-16 0)
(3 -2.94791e-16 0)
(3 -2.76103e-17 0)
(3 -3.65147e-14 0)
(3 -2.71193e-14 0)
(2.5861 0.194651 0)
(0.927906 0.256264 0)
(0.818521 0.269939 0)
(0.880627 0.272858 0)
(0.945638 0.289473 0)
(3 5.1761e-17 0)
(3 1.1243e-16 0)
(3 2.22634e-16 0)
(3 7.7462e-17 0)
(3 -7.41866e-17 0)
(3 -2.1054e-16 0)
(3 -3.70452e-16 0)
(3 -1.04387e-15 0)
(3 -1.03052e-15 0)
(3 -1.26152e-15 0)
(3 -1.5131e-15 0)
(3 -1.58033e-15 0)
(3 -1.18056e-15 0)
(3 -7.29651e-16 0)
(3 -5.05642e-16 0)
(3 -6.72131e-17 0)
(3 4.69734e-16 0)
(3 -1.52632e-15 0)
(3 -8.94972e-15 0)
(2.85705 0.120659 0)
(1.01872 0.253008 0)
(0.812544 0.243146 0)
(0.855068 0.238884 0)
(0.889543 0.248029 0)
(3 6.73517e-17 0)
(3 2.29038e-16 0)
(3 -1.35926e-16 0)
(3 -3.50867e-16 0)
(3 -5.16944e-16 0)
(3 -1.17373e-15 0)
(3 -1.29751e-15 0)
(3 -5.63818e-16 0)
(3 -2.48772e-16 0)
(3 -1.89584e-16 0)
(3 -5.31406e-16 0)
(3 -6.39847e-16 0)
(3 -8.33374e-16 0)
(3 -7.01311e-16 0)
(3 -1.41109e-16 0)
(3 1.83399e-16 0)
(3 -6.95466e-18 0)
(3 3.32995e-16 0)
(3 -9.66438e-16 0)
(2.97009 0.0275522 0)
(1.08465 0.237004 0)
(0.816035 0.219139 0)
(0.852822 0.214561 0)
(0.882659 0.214896 0)
(3 -1.94053e-16 0)
(3 -9.44631e-16 0)
(3 -9.125e-16 0)
(3 -9.89247e-16 0)
(3 -1.31516e-15 0)
(3 -7.98074e-16 0)
(3 -1.94381e-16 0)
(3 5.4495e-16 0)
(3 8.01836e-16 0)
(3 6.07538e-16 0)
(3 5.54488e-16 0)
(3 8.22147e-16 0)
(3 2.7299e-16 0)
(3 6.94314e-17 0)
(3 7.25297e-17 0)
(3 2.4396e-16 0)
(3 4.55444e-16 0)
(3 1.15465e-15 0)
(3 6.03966e-16 0)
(3.00299 0.00329054 0)
(1.13337 0.211708 0)
(0.805782 0.19625 0)
(0.835714 0.192891 0)
(0.865618 0.194789 0)
(3 -1.9707e-16 0)
(3 -6.77224e-16 0)
(3 -5.10037e-16 0)
(3 -4.45347e-16 0)
(3 5.5396e-16 0)
(3 1.51451e-15 0)
(3 1.65565e-15 0)
(3 9.80434e-16 0)
(3 1.01125e-15 0)
(3 1.07496e-15 0)
(3 1.15784e-15 0)
(3 9.53225e-16 0)
(3 1.05358e-15 0)
(3 1.08652e-15 0)
(3 7.2609e-16 0)
(3 6.08454e-16 0)
(3 2.84216e-16 0)
(3 6.69116e-17 0)
(3 -5.66489e-16 0)
(3.00007 9.60271e-06 0)
(1.21751 0.197045 0)
(0.804697 0.174877 0)
(0.820654 0.170645 0)
(0.854262 0.17181 0)
(3 2.50576e-16 0)
(3 9.37795e-16 0)
(3 8.87947e-16 0)
(3 1.12224e-15 0)
(3 1.42344e-15 0)
(3 1.95996e-15 0)
(3 2.02875e-15 0)
(3 1.57816e-15 0)
(3 1.1161e-15 0)
(3 1.15995e-15 0)
(3 1.42453e-15 0)
(3 1.34543e-15 0)
(3 1.60752e-15 0)
(3 1.26064e-15 0)
(3 1.28223e-15 0)
(3 1.49283e-15 0)
(3 6.41459e-16 0)
(3 8.24798e-17 0)
(3 -6.72739e-17 0)
(3 -3.22156e-10 0)
(1.33634 0.184085 0)
(0.810712 0.155447 0)
(0.816196 0.148994 0)
(0.853936 0.148072 0)
(3 2.02583e-16 0)
(3 8.61621e-16 0)
(3 7.98326e-16 0)
(3 4.89051e-16 0)
(3 1.33052e-16 0)
(3 2.95363e-16 0)
(3 5.42017e-16 0)
(3 7.37449e-16 0)
(3 8.4922e-16 0)
(3 1.08512e-15 0)
(3 1.38598e-15 0)
(3 1.8841e-15 0)
(3 1.42649e-15 0)
(3 9.5099e-16 0)
(3 5.68401e-16 0)
(3 6.34597e-16 0)
(3 1.21781e-15 0)
(3 1.34882e-15 0)
(3 8.44273e-16 0)
(3 9.4964e-14 0)
(1.46191 0.159219 0)
(0.816587 0.133403 0)
(0.818188 0.127421 0)
(0.85773 0.124914 0)
(3 -8.21006e-18 0)
(3 2.43139e-16 0)
(3 -1.55186e-16 0)
(3 -7.01814e-16 0)
(3 -5.85195e-16 0)
(3 -3.46692e-16 0)
(3 1.15764e-16 0)
(3 5.33915e-16 0)
(3 5.87494e-16 0)
(3 9.19528e-16 0)
(3 1.22275e-15 0)
(3 1.14997e-15 0)
(3 7.12918e-16 0)
(3 5.99609e-16 0)
(3 3.65942e-16 0)
(3 -1.69029e-16 0)
(3 -5.87696e-17 0)
(3 -1.12154e-16 0)
(3 3.51475e-16 0)
(3 -7.63126e-13 0)
(1.57137 0.126809 0)
(0.818261 0.109722 0)
(0.814765 0.104349 0)
(0.855385 0.101598 0)
(3 -4.66218e-17 0)
(3 -1.37668e-16 0)
(3 1.76352e-17 0)
(3 6.62565e-17 0)
(3 -2.7892e-16 0)
(3 -3.74087e-17 0)
(3 1.21985e-16 0)
(3 4.04346e-16 0)
(3 6.19559e-16 0)
(3 7.42503e-16 0)
(3 6.93791e-16 0)
(3 -2.22645e-16 0)
(3 -2.61336e-17 0)
(3 4.99368e-16 0)
(3 8.40962e-16 0)
(3 6.82478e-16 0)
(3 4.86827e-17 0)
(3 -3.99184e-16 0)
(3 -9.43225e-17 0)
(3 -5.54193e-13 0)
(1.66 0.0965273 0)
(0.8178 0.0861023 0)
(0.808232 0.0813952 0)
(0.848642 0.0792327 0)
(3 3.20447e-17 0)
(3 -2.61725e-16 0)
(3 3.21489e-16 0)
(3 3.75773e-16 0)
(3 -2.07397e-16 0)
(3 -7.71309e-16 0)
(3 -1.40142e-15 0)
(3 -9.99888e-16 0)
(3 -2.21358e-16 0)
(3 1.13461e-16 0)
(3 -1.04304e-16 0)
(3 -2.99354e-16 0)
(3 -4.00616e-16 0)
(3 -3.44356e-16 0)
(3 -1.01005e-16 0)
(3 -5.76338e-17 0)
(3 -1.8651e-16 0)
(3 -3.59677e-16 0)
(3 -1.15731e-15 0)
(3 -3.01667e-13 0)
(1.73498 0.0682946 0)
(0.821983 0.0617683 0)
(0.807694 0.0582944 0)
(0.848188 0.0568095 0)
(3 -1.17388e-16 0)
(3 -2.90552e-16 0)
(3 -7.50716e-16 0)
(3 -4.49488e-16 0)
(3 5.43664e-17 0)
(3 -9.18913e-16 0)
(3 -1.05877e-15 0)
(3 -5.25277e-16 0)
(3 -2.88103e-16 0)
(3 -2.21268e-16 0)
(3 3.15806e-17 0)
(3 7.07537e-16 0)
(3 6.98101e-17 0)
(3 -6.71358e-16 0)
(3 -1.47062e-15 0)
(3 -1.74949e-15 0)
(3 -1.58242e-15 0)
(3 -1.21791e-15 0)
(3 -1.49352e-15 0)
(3 -9.47567e-14 0)
(1.7847 0.0361407 0)
(0.825476 0.0355065 0)
(0.807381 0.0344673 0)
(0.84734 0.0337839 0)
(3 1.25204e-18 0)
(3 -2.58744e-16 0)
(3 -9.47686e-16 0)
(3 -6.85516e-16 0)
(3 1.34185e-16 0)
(3 -7.59368e-17 0)
(3 -3.50721e-16 0)
(3 3.49134e-17 0)
(3 -1.27749e-16 0)
(3 3.23495e-16 0)
(3 7.33465e-16 0)
(3 8.56033e-16 0)
(3 6.84554e-16 0)
(3 -8.66837e-17 0)
(3 -7.25225e-16 0)
(3 -8.64594e-16 0)
(3 -1.22344e-15 0)
(3 -1.22518e-15 0)
(3 -9.26883e-16 0)
(3 -1.01292e-14 0)
(1.79633 0.00778879 0)
(0.819933 0.00972422 0)
(0.799265 0.0113062 0)
(0.838406 0.0119535 0)
(1.26588 1.42863 0)
(0.318696 0.701366 0)
(-0.0279645 0.144629 0)
(-0.0323607 0.00849568 0)
(-0.0367753 0.00747053 0)
(-0.0767401 0.0258676 0)
(-0.138409 0.0281065 0)
(-0.179411 0.0170032 0)
(-0.197106 0.0107253 0)
(-0.200305 0.0112795 0)
(-0.200663 0.0160665 0)
(-0.213089 0.0197604 0)
(-0.235702 0.0198868 0)
(-0.26084 0.0194421 0)
(-0.281031 0.0181471 0)
(-0.294352 0.0165097 0)
(-0.29743 0.0138183 0)
(-0.288722 0.0101161 0)
(-0.278594 0.00509987 0)
(-0.273172 0.000122509 0)
(-0.269382 -0.00388261 0)
(-0.263437 -0.00706641 0)
(-0.253103 -0.0111355 0)
(-0.233345 -0.0154712 0)
(-0.204494 -0.0206839 0)
(-0.168633 -0.0263984 0)
(-0.129227 -0.0323014 0)
(-0.0890154 -0.0374674 0)
(-0.0488909 -0.0414528 0)
(-0.00862393 -0.0441106 0)
(0.0322982 -0.045374 0)
(0.0746633 -0.0458658 0)
(0.118997 -0.0455116 0)
(0.165233 -0.0446707 0)
(0.213196 -0.0439768 0)
(0.262745 -0.0440825 0)
(0.313168 -0.0448818 0)
(0.362529 -0.0457937 0)
(0.409089 -0.0463364 0)
(0.453 -0.0460116 0)
(0.493933 -0.044958 0)
(0.532848 -0.043575 0)
(0.570889 -0.0423313 0)
(0.6087 -0.0407659 0)
(0.646424 -0.0383235 0)
(0.683995 -0.0351725 0)
(0.721821 -0.0317447 0)
(0.75993 -0.0289748 0)
(0.797122 -0.0267715 0)
(0.831558 -0.0251259 0)
(0.862844 -0.0240881 0)
(0.891498 -0.0237925 0)
(0.919196 -0.0240496 0)
(0.946976 -0.024261 0)
(0.974276 -0.0240796 0)
(0.999928 -0.0232324 0)
(1.02394 -0.0216378 0)
(1.04736 -0.0198393 0)
(1.07149 -0.0184036 0)
(1.09688 -0.017316 0)
(1.12285 -0.0161372 0)
(1.14812 -0.0144816 0)
(1.17198 -0.012596 0)
(1.19543 -0.0111876 0)
(1.21994 -0.0103862 0)
(1.24582 -0.00977482 0)
(1.27155 -0.0093481 0)
(1.29524 -0.00911839 0)
(1.31647 -0.00872796 0)
(1.33626 -0.00800259 0)
(1.35609 -0.0072975 0)
(1.37714 -0.00697866 0)
(1.40021 -0.00743756 0)
(1.42524 -0.00865914 0)
(1.45058 -0.00938876 0)
(1.47404 -0.00910143 0)
(1.49497 -0.00781927 0)
(1.51458 -0.00608884 0)
(1.53434 -0.00477647 0)
(1.55576 -0.0042147 0)
(1.58013 -0.00423145 0)
(1.60482 -0.0033323 0)
(1.62313 -0.00154321 0)
(1.63911 0.000394843 0)
(1.65414 0.0031999 0)
(1.66898 0.00492559 0)
(1.68656 0.00518993 0)
(1.71047 0.00331058 0)
(1.73212 -0.00263877 0)
(1.74644 -0.00478494 0)
(1.76109 -0.00358111 0)
(1.76972 0.000704283 0)
(1.77239 0.00615146 0)
(1.77571 0.00837747 0)
(1.77872 0.00915234 0)
(1.77241 0.00528423 0)
(1.73792 1.24679 0)
(1.29007 0.802017 0)
(0.874347 0.25487 0)
(0.510265 0.0283318 0)
(0.256866 0.0158247 0)
(0.0899447 0.055927 0)
(-0.0257506 0.0556328 0)
(-0.0886201 0.0235847 0)
(-0.123378 0.0144122 0)
(-0.142396 0.0232003 0)
(-0.153231 0.0375415 0)
(-0.171385 0.0455983 0)
(-0.192679 0.0365068 0)
(-0.211366 0.0220246 0)
(-0.223788 0.0121329 0)
(-0.229666 0.0101615 0)
(-0.229887 0.0106552 0)
(-0.22119 0.00717385 0)
(-0.208178 -0.0030303 0)
(-0.19296 -0.0148851 0)
(-0.1758 -0.023679 0)
(-0.156833 -0.0282863 0)
(-0.135586 -0.027506 0)
(-0.109467 -0.0259073 0)
(-0.0757271 -0.0269893 0)
(-0.0337744 -0.0323507 0)
(0.0136646 -0.0401146 0)
(0.0626524 -0.0480791 0)
(0.109757 -0.0545038 0)
(0.153892 -0.0602741 0)
(0.197086 -0.0652828 0)
(0.241931 -0.0675267 0)
(0.289232 -0.0666584 0)
(0.337528 -0.0621674 0)
(0.384282 -0.0549741 0)
(0.428968 -0.0475797 0)
(0.472842 -0.044146 0)
(0.517548 -0.0470783 0)
(0.56286 -0.0535233 0)
(0.605933 -0.0591796 0)
(0.644072 -0.0622405 0)
(0.678133 -0.0638285 0)
(0.711232 -0.0651732 0)
(0.745369 -0.0658243 0)
(0.780893 -0.0632138 0)
(0.815122 -0.0556294 0)
(0.847301 -0.0445171 0)
(0.877636 -0.0335615 0)
(0.908129 -0.0260062 0)
(0.938698 -0.0211572 0)
(0.967884 -0.0174747 0)
(0.99374 -0.0143607 0)
(1.01649 -0.0134528 0)
(1.03841 -0.0155012 0)
(1.06136 -0.0192856 0)
(1.08478 -0.0224923 0)
(1.10672 -0.0231587 0)
(1.12699 -0.0217377 0)
(1.14727 -0.0200289 0)
(1.16894 -0.0190912 0)
(1.19231 -0.0182651 0)
(1.21643 -0.0162113 0)
(1.23975 -0.0119558 0)
(1.26141 -0.00636979 0)
(1.28217 -0.00220728 0)
(1.30309 -0.000711679 0)
(1.32469 -0.00249244 0)
(1.34699 -0.00584154 0)
(1.36878 -0.00792622 0)
(1.38824 -0.00687969 0)
(1.40597 -0.00438447 0)
(1.4235 -0.00224673 0)
(1.44182 -0.00213636 0)
(1.46219 -0.00595935 0)
(1.48547 -0.0124418 0)
(1.51016 -0.0174682 0)
(1.53332 -0.018128 0)
(1.55297 -0.014735 0)
(1.57109 -0.0100205 0)
(1.58957 -0.00642593 0)
(1.60926 -0.0051023 0)
(1.63082 -0.00621222 0)
(1.65151 -0.00677849 0)
(1.66825 -0.00466336 0)
(1.68308 0.00202329 0)
(1.69587 0.0124992 0)
(1.70906 0.0192591 0)
(1.7222 0.0179273 0)
(1.73994 0.00857422 0)
(1.76045 -0.0041253 0)
(1.77508 -0.011911 0)
(1.787 -0.0125013 0)
(1.79578 -0.00420782 0)
(1.79795 0.0111406 0)
(1.79867 0.0224543 0)
(1.78234 0.0214845 0)
(1.69359 1.09534 0)
(1.64613 1.01233 0)
(1.52902 0.812412 0)
(1.24083 0.600624 0)
(0.831188 0.429516 0)
(0.530417 0.286627 0)
(0.344104 0.174188 0)
(0.214538 0.114133 0)
(0.111101 0.0848644 0)
(0.039725 0.0686596 0)
(-0.00846776 0.0627952 0)
(-0.0395517 0.0471092 0)
(-0.0553384 0.0220981 0)
(-0.0561974 0.0014306 0)
(-0.0465828 -0.0129518 0)
(-0.0303274 -0.0222818 0)
(-0.0108074 -0.0292857 0)
(0.0122037 -0.0331117 0)
(0.0385838 -0.0382203 0)
(0.0705671 -0.0495524 0)
(0.10954 -0.0659856 0)
(0.153938 -0.0847898 0)
(0.201654 -0.0980642 0)
(0.249709 -0.104162 0)
(0.297997 -0.106019 0)
(0.348116 -0.108365 0)
(0.402318 -0.115677 0)
(0.460001 -0.1273 0)
(0.518432 -0.138862 0)
(0.571832 -0.145327 0)
(0.617153 -0.146274 0)
(0.656964 -0.145224 0)
(0.697075 -0.1454 0)
(0.740081 -0.147125 0)
(0.784833 -0.148349 0)
(0.828043 -0.146206 0)
(0.865574 -0.137966 0)
(0.898718 -0.127315 0)
(0.931268 -0.119905 0)
(0.964164 -0.116091 0)
(0.995049 -0.112221 0)
(1.02034 -0.105704 0)
(1.04176 -0.0989028 0)
(1.06324 -0.0947628 0)
(1.08729 -0.0935535 0)
(1.11399 -0.092161 0)
(1.13967 -0.0874936 0)
(1.16169 -0.0791034 0)
(1.18129 -0.071892 0)
(1.20128 -0.0682391 0)
(1.22283 -0.0669117 0)
(1.24404 -0.06426 0)
(1.26147 -0.0591773 0)
(1.27589 -0.0532389 0)
(1.28956 -0.0476487 0)
(1.30405 -0.0435261 0)
(1.31915 -0.0398455 0)
(1.33375 -0.0361755 0)
(1.34793 -0.0328389 0)
(1.3623 -0.0312594 0)
(1.37766 -0.0321182 0)
(1.39513 -0.03469 0)
(1.414 -0.0363391 0)
(1.43183 -0.0354532 0)
(1.44762 -0.0327 0)
(1.46207 -0.0299141 0)
(1.47601 -0.0283532 0)
(1.49041 -0.0290713 0)
(1.50661 -0.0316497 0)
(1.52333 -0.0330395 0)
(1.53803 -0.0317309 0)
(1.55223 -0.0280467 0)
(1.56624 -0.0216097 0)
(1.58087 -0.0154523 0)
(1.59642 -0.0130524 0)
(1.61354 -0.0146567 0)
(1.63377 -0.0179356 0)
(1.65344 -0.0176988 0)
(1.66916 -0.0145491 0)
(1.68332 -0.00980467 0)
(1.69718 -0.00527179 0)
(1.71081 -0.00437598 0)
(1.72549 -0.00793653 0)
(1.74162 -0.0118204 0)
(1.75634 -0.0104216 0)
(1.76997 -0.00344054 0)
(1.78106 0.00911437 0)
(1.78564 0.02259 0)
(1.79299 0.0274894 0)
(1.80391 0.0239505 0)
(1.81631 0.0125729 0)
(1.83322 0.00270909 0)
(1.84689 0.00136059 0)
(1.85307 0.00771626 0)
(1.85216 0.0192035 0)
(1.82658 0.0247804 0)
(1.58594 1.00471 0)
(1.68269 0.964161 0)
(1.77428 0.881535 0)
(1.76604 0.784332 0)
(1.53637 0.649374 0)
(1.27532 0.478992 0)
(1.03263 0.363704 0)
(0.802655 0.278394 0)
(0.589494 0.206555 0)
(0.424968 0.139744 0)
(0.32455 0.084581 0)
(0.292679 0.041043 0)
(0.286324 0.018002 0)
(0.302268 0.00571235 0)
(0.328556 -0.00770108 0)
(0.366118 -0.0245648 0)
(0.414733 -0.0387985 0)
(0.466896 -0.0497047 0)
(0.515998 -0.0560986 0)
(0.561615 -0.0612248 0)
(0.609492 -0.0723708 0)
(0.664387 -0.0892722 0)
(0.727338 -0.111079 0)
(0.795259 -0.1312 0)
(0.860395 -0.143003 0)
(0.916156 -0.145552 0)
(0.963895 -0.144219 0)
(1.00902 -0.145923 0)
(1.05618 -0.152112 0)
(1.10561 -0.158573 0)
(1.1506 -0.159153 0)
(1.18463 -0.150645 0)
(1.21019 -0.137609 0)
(1.23444 -0.127638 0)
(1.26208 -0.125114 0)
(1.29406 -0.129238 0)
(1.323 -0.132624 0)
(1.34195 -0.12962 0)
(1.35587 -0.125139 0)
(1.37075 -0.12183 0)
(1.38886 -0.118769 0)
(1.40707 -0.113905 0)
(1.42088 -0.106432 0)
(1.43243 -0.0979452 0)
(1.44462 -0.0891742 0)
(1.45941 -0.0812322 0)
(1.47635 -0.0740486 0)
(1.49116 -0.0670251 0)
(1.50162 -0.0613619 0)
(1.51198 -0.0555794 0)
(1.52417 -0.0499075 0)
(1.53807 -0.0476762 0)
(1.54912 -0.0478731 0)
(1.55841 -0.0467698 0)
(1.56538 -0.0443752 0)
(1.57216 -0.0427688 0)
(1.58094 -0.0408824 0)
(1.59072 -0.0374465 0)
(1.60047 -0.0321416 0)
(1.60937 -0.0258526 0)
(1.61883 -0.0188556 0)
(1.63025 -0.0131546 0)
(1.64306 -0.0105913 0)
(1.65494 -0.0101151 0)
(1.66558 -0.0100964 0)
(1.67532 -0.00855409 0)
(1.6832 -0.00488979 0)
(1.68962 -0.000850324 0)
(1.69783 0.000575403 0)
(1.70779 -0.000752441 0)
(1.71756 -0.00381022 0)
(1.72742 -0.00612773 0)
(1.73773 -0.00619449 0)
(1.74698 -0.00405825 0)
(1.75538 -0.000175294 0)
(1.76674 0.00371449 0)
(1.77988 0.00698162 0)
(1.79385 0.00796906 0)
(1.80634 0.00781352 0)
(1.81837 0.00939843 0)
(1.82778 0.0138854 0)
(1.83299 0.0185167 0)
(1.84077 0.0201907 0)
(1.85166 0.0191307 0)
(1.86409 0.0131688 0)
(1.87551 0.00527788 0)
(1.88468 0.000399921 0)
(1.89123 0.000924208 0)
(1.89186 0.00932748 0)
(1.89428 0.0182889 0)
(1.90369 0.0226452 0)
(1.91246 0.0255959 0)
(1.92328 0.0230823 0)
(1.92966 0.0160608 0)
(1.92539 0.0121708 0)
(1.89525 0.00276208 0)
(1.52982 0.925227 0)
(1.64615 0.89612 0)
(1.74394 0.864434 0)
(1.87715 0.802027 0)
(1.81757 0.777157 0)
(1.7182 0.726757 0)
(1.61154 0.635748 0)
(1.42535 0.539622 0)
(1.18656 0.438228 0)
(0.979635 0.31417 0)
(0.856716 0.194602 0)
(0.841824 0.0866225 0)
(0.854372 0.0194175 0)
(0.874777 -0.0136163 0)
(0.901112 -0.0286935 0)
(0.934482 -0.0443655 0)
(0.980934 -0.0682929 0)
(1.0408 -0.0975891 0)
(1.10474 -0.122802 0)
(1.15896 -0.137111 0)
(1.20067 -0.14286 0)
(1.23707 -0.149844 0)
(1.27678 -0.163479 0)
(1.32614 -0.18396 0)
(1.38187 -0.205216 0)
(1.43138 -0.216887 0)
(1.4652 -0.217054 0)
(1.48651 -0.213585 0)
(1.50437 -0.212451 0)
(1.52657 -0.214451 0)
(1.55468 -0.218751 0)
(1.57903 -0.219257 0)
(1.59164 -0.21252 0)
(1.59766 -0.203338 0)
(1.60466 -0.196125 0)
(1.61719 -0.192234 0)
(1.63522 -0.186267 0)
(1.64667 -0.171956 0)
(1.65053 -0.155696 0)
(1.6544 -0.144435 0)
(1.66126 -0.139356 0)
(1.67165 -0.135182 0)
(1.6807 -0.125219 0)
(1.68774 -0.111355 0)
(1.69379 -0.0978885 0)
(1.70127 -0.089559 0)
(1.71083 -0.0845536 0)
(1.71941 -0.0788332 0)
(1.7259 -0.0695398 0)
(1.73384 -0.0558021 0)
(1.74227 -0.0431614 0)
(1.7497 -0.0377447 0)
(1.75652 -0.0373082 0)
(1.76233 -0.0402092 0)
(1.76697 -0.041306 0)
(1.77311 -0.0364591 0)
(1.78007 -0.0299913 0)
(1.78814 -0.0269063 0)
(1.79591 -0.0260797 0)
(1.80253 -0.0253066 0)
(1.80932 -0.0246223 0)
(1.81758 -0.0225616 0)
(1.8275 -0.0187419 0)
(1.83711 -0.0142633 0)
(1.84551 -0.0112244 0)
(1.85233 -0.00999273 0)
(1.85707 -0.00934437 0)
(1.86062 -0.00786963 0)
(1.86483 -0.0056737 0)
(1.87023 -0.00425598 0)
(1.87648 -0.00405609 0)
(1.88328 -0.00460023 0)