/*--------------------------------*- C++ -*----------------------------------*\
  =========                 |
  \\      /  F ield         | OpenFOAM: The Open Source CFD Toolbox
   \\    /   O peration     | Website:  https://openfoam.org
    \\  /    A nd           | Version:  7
     \\/     M anipulation  |
\*---------------------------------------------------------------------------*/
FoamFile
{
    version     2.0;
    format      ascii;
    class       volScalarField;
    location    "60";
    object      p;
}
// * * * * * * * * * * * * * * * * * * * * * * * * * * * * * * * * * * * * * //

dimensions      [0 2 -2 0 0 0 0];

internalField   nonuniform List<scalar> 
1987
(
-0.0509317
-0.0478965
-0.0451156
-0.0425852
-0.040297
-0.038238
-0.0363911
-0.0347359
-0.0332487
-0.0319041
-0.0306753
-0.0295357
-0.0284589
-0.0274211
-0.0264007
-0.0253799
-0.0243444
-0.0232851
-0.0221965
-0.0210785
-0.0199337
-0.0187698
-0.0175954
-0.0164239
-0.0152666
-0.0141397
-0.0130546
-0.0120274
-0.0110668
-0.0101862
-0.00938986
-0.00868588
-0.00807345
-0.00755306
-0.00711919
-0.00676282
-0.00647618
-0.00623933
-0.00604698
-0.00586779
-0.00570535
-0.00551767
-0.0053239
-0.005073
-0.00480465
-0.00446018
-0.00410242
-0.0036639
-0.00323346
-0.00272682
-0.00226793
-0.00173671
-0.00131136
-0.000812082
-0.00048252
-9.92327e-05
-0.0515349
-0.048511
-0.0457335
-0.0431991
-0.0409001
-0.0388241
-0.036955
-0.0352732
-0.0337561
-0.0323794
-0.0311172
-0.029944
-0.0288345
-0.0277657
-0.0267164
-0.0256698
-0.0246117
-0.0235334
-0.0224292
-0.021299
-0.0201451
-0.0189749
-0.0177963
-0.0166223
-0.0154639
-0.0143363
-0.0132508
-0.0122226
-0.0112605
-0.0103769
-0.00957652
-0.00886671
-0.00824705
-0.00771762
-0.00727345
-0.00690533
-0.00660608
-0.00635588
-0.00614986
-0.00595725
-0.00578155
-0.00558198
-0.00537673
-0.00511676
-0.00483962
-0.00448966
-0.00412598
-0.00368567
-0.0032514
-0.00274647
-0.00228388
-0.00175783
-0.00132557
-0.000835079
-0.000490484
-0.000116531
-0.0521224
-0.0491148
-0.046345
-0.0438102
-0.0415031
-0.0394122
-0.0375222
-0.0358145
-0.0342676
-0.0328583
-0.0315621
-0.0303544
-0.0292111
-0.02811
-0.0270311
-0.0259578
-0.0248766
-0.0237791
-0.0226595
-0.0215176
-0.0203554
-0.0191798
-0.0179984
-0.0168234
-0.0156652
-0.0145384
-0.0134538
-0.0124258
-0.0114631
-0.0105774
-0.00977342
-0.00905796
-0.00843094
-0.00789202
-0.0074368
-0.00705591
-0.00674283
-0.00647793
-0.00625681
-0.00604936
-0.0058591
-0.00564646
-0.00542881
-0.00515909
-0.00487277
-0.00451715
-0.00414768
-0.00370582
-0.00326818
-0.00276536
-0.00229972
-0.00177904
-0.00134056
-0.000858326
-0.000499613
-0.000132845
-0.0527272
-0.049736
-0.046974
-0.0444386
-0.0421232
-0.040017
-0.0381056
-0.0363713
-0.034794
-0.0333515
-0.0320205
-0.0307776
-0.0295999
-0.0284661
-0.0273569
-0.0262566
-0.0251521
-0.0240351
-0.0228999
-0.0217463
-0.0205758
-0.019395
-0.0182108
-0.0170348
-0.015877
-0.014751
-0.0136674
-0.0126397
-0.0116763
-0.0107883
-0.00998042
-0.00925891
-0.00862399
-0.00807494
-0.0076079
-0.0072134
-0.00688554
-0.00660498
-0.00636776
-0.00614457
-0.00593883
-0.00571244
-0.00548173
-0.00520186
-0.004906
-0.00454465
-0.00416929
-0.00372607
-0.00328517
-0.00278474
-0.00231624
-0.00180103
-0.00135662
-0.000882029
-0.000509866
-0.000148064
-0.024303
-0.0231522
-0.0219868
-0.020808
-0.0196219
-0.018435
-0.0172581
-0.0161006
-0.0149755
-0.0138927
-0.0128651
-0.0119009
-0.0110103
-0.0101981
-0.00947002
-0.00882657
-0.00826667
-0.00778697
-0.00737798
-0.00703437
-0.00673721
-0.0064829
-0.00624312
-0.00602104
-0.00578025
-0.00553582
-0.00524544
-0.00493968
-0.00457254
-0.00419117
-0.00374675
-0.00330264
-0.00280481
-0.00233359
-0.00182384
-0.00137377
-0.00090609
-0.000521185
-0.000162141
-0.049355
-0.0464066
-0.0436202
-0.0410003
-0.0385359
-0.0362244
-0.0340585
-0.0320377
-0.0301482
-0.0283859
-0.0267461
-0.0252244
-0.0238121
-0.0225037
-0.0212918
-0.0201698
-0.0191292
-0.0181608
-0.0172558
-0.0164157
-0.0156218
-0.014871
-0.0141579
-0.0134781
-0.0128268
-0.012203
-0.0116043
-0.0110318
-0.0104833
-0.00996077
-0.00946126
-0.00898627
-0.00853127
-0.00809648
-0.00767881
-0.00727551
-0.0068823
-0.00649727
-0.00612017
-0.00574547
-0.00538079
-0.00501284
-0.0046624
-0.00429988
-0.00396826
-0.00360834
-0.00330007
-0.0029351
-0.00265549
-0.00227274
-0.00203232
-0.0016143
-0.0490655
-0.0460849
-0.0432795
-0.0406515
-0.0381913
-0.0358958
-0.0337596
-0.0317702
-0.029926
-0.0282149
-0.02663
-0.0251654
-0.0238099
-0.0225561
-0.0213947
-0.0203176
-0.0193147
-0.0183749
-0.0174883
-0.0166593
-0.0158659
-0.0151074
-0.014377
-0.0136729
-0.0129913
-0.0123327
-0.0116964
-0.011085
-0.0104979
-0.00993905
-0.00940661
-0.00890346
-0.00842606
-0.00797548
-0.00754852
-0.00714289
-0.00675413
-0.00637938
-0.00601791
-0.00566262
-0.0053205
-0.00497607
-0.00464978
-0.00430964
-0.00399852
-0.00365548
-0.00336
-0.00300389
-0.00272723
-0.00234521
-0.00209805
-0.00167471
-0.00148373
-0.000996892
-0.000913415
-0.000322645
-0.000438864
0.000339439
-0.048804
-0.0457908
-0.0429653
-0.040328
-0.0378714
-0.0355907
-0.0334794
-0.0315258
-0.0297225
-0.0280612
-0.0265294
-0.0251215
-0.0238214
-0.0226209
-0.0215085
-0.0204747
-0.0195084
-0.0185956
-0.0177254
-0.016907
-0.016114
-0.0153459
-0.0145983
-0.0138697
-0.0131578
-0.0124647
-0.011791
-0.0111411
-0.0105162
-0.0099214
-0.00935648
-0.00882552
-0.00832594
-0.00785963
-0.00742336
-0.00701526
-0.00663067
-0.00626591
-0.00591973
-0.00558347
-0.00526355
-0.00494232
-0.00463976
-0.00432168
-0.00403066
-0.00370421
-0.00342109
-0.00307361
-0.00279955
-0.00241813
-0.00216398
-0.00173541
-0.00153033
-0.00103565
-0.000935529
-0.000337872
-0.000441198
0.000337483
-0.0485735
-0.0455279
-0.0426817
-0.0400348
-0.0375807
-0.0353135
-0.0332256
-0.0313045
-0.0295449
-0.0279305
-0.0264469
-0.0250939
-0.0238467
-0.0226981
-0.0216328
-0.0206402
-0.019708
-0.0188213
-0.0179651
-0.0171578
-0.016363
-0.0155852
-0.0148199
-0.0140666
-0.0133245
-0.0125973
-0.0118869
-0.0111995
-0.0105374
-0.00990765
-0.00931104
-0.00875296
-0.00823169
-0.00774993
-0.0073045
-0.00689388
-0.00651324
-0.00615815
-0.00582679
-0.00550909
-0.00521078
-0.00491224
-0.0046328
-0.00433624
-0.00406469
-0.00375435
-0.00348304
-0.00314381
-0.00287184
-0.00249096
-0.00222957
-0.00179586
-0.00157658
-0.00107444
-0.00095749
-0.000353783
-0.000443387
0.000333667
-0.0483766
-0.0452993
-0.0424325
-0.0397757
-0.0373232
-0.0350685
-0.0330027
-0.0311131
-0.0293919
-0.0278247
-0.0263976
-0.025086
-0.0238868
-0.0227883
-0.0217677
-0.0208135
-0.0199121
-0.0190514
-0.0182299
-0.0174091
-0.0166116
-0.0158232
-0.0150396
-0.0142617
-0.0134899
-0.0127293
-0.0119831
-0.0112592
-0.0105613
-0.00989774
-0.00927055
-0.0086863
-0.00814409
-0.00764737
-0.00719307
-0.00677997
-0.00640308
-0.0060573
-0.00574023
-0.00544048
-0.005163
-0.00488646
-0.00462931
-0.00435353
-0.00410063
-0.00380576
-0.00354553
-0.00321407
-0.00294362
-0.00256316
-0.00229433
-0.00185556
-0.00162207
-0.0011129
-0.000979054
-0.000370186
-0.000445356
0.000328033
-0.0482161
-0.0451081
-0.042221
-0.0395543
-0.0371029
-0.0348594
-0.0328143
-0.0309547
-0.0292693
-0.027744
-0.0263619
-0.0251027
-0.0239554
-0.0228956
-0.0219154
-0.0209968
-0.0201244
-0.0192853
-0.0184727
-0.0176596
-0.0168583
-0.0160582
-0.015256
-0.0144536
-0.0136526
-0.0128595
-0.0120789
-0.0113199
-0.0105876
-0.0098917
-0.0092353
-0.00862609
-0.00806389
-0.00755289
-0.0070901
-0.00667466
-0.00630133
-0.00596448
-0.00566109
-0.00537852
-0.00512111
-0.00486546
-0.00462964
-0.00437371
-0.00413847
-0.00385825
-0.00360826
-0.00328399
-0.00301483
-0.00263423
-0.0023578
-0.00191406
-0.00166644
-0.00115067
-0.001
-0.00038691
-0.000447042
0.000320638
-0.0480945
-0.0449571
-0.0420505
-0.039374
-0.0369229
-0.0346895
-0.0326635
-0.0308314
-0.0291798
-0.0276927
-0.0263522
-0.0251372
-0.0240322
-0.0230165
-0.0220744
-0.0211872
-0.0203387
-0.0195196
-0.0187162
-0.0179082
-0.0171014
-0.0162889
-0.0154679
-0.0146413
-0.0138119
-0.0129874
-0.0121737
-0.0113812
-0.0106163
-0.00988972
-0.00920569
-0.00857291
-0.00799183
-0.00746736
-0.00699659
-0.00657897
-0.00620902
-0.00588068
-0.00559027
-0.00532405
-0.00508554
-0.00484976
-0.00463405
-0.00439691
-0.00417816
-0.00391157
-0.00367094
-0.00335324
-0.00308451
-0.00270377
-0.00241957
-0.00197095
-0.00170936
-0.00118748
-0.00102016
-0.000403805
-0.000448398
0.000311553
-0.0480139
-0.0448488
-0.0419234
-0.0392374
-0.0367862
-0.0345617
-0.0325528
-0.0307456
-0.0291249
-0.027673
-0.0263706
-0.0251954
-0.0241294
-0.0231518
-0.0222434
-0.0213846
-0.0205587
-0.0197555
-0.0189594
-0.0181535
-0.0173401
-0.0165143
-0.0156744
-0.014824
-0.0139671
-0.0131125
-0.0122673
-0.0114431
-0.0106474
-0.00989208
-0.00918216
-0.00852734
-0.00792861
-0.00739158
-0.00691339
-0.00649379
-0.00612706
-0.00580675
-0.00552853
-0.00527773
-0.0050569
-0.00483987
-0.00464281
-0.00442318
-0.00421967
-0.00396556
-0.00373337
-0.00342149
-0.00315271
-0.00277141
-0.0024793
-0.00202589
-0.00175059
-0.00122307
-0.00103938
-0.000420746
-0.000449395
0.000300864
-0.0479764
-0.0447853
-0.0418422
-0.039147
-0.036695
-0.034478
-0.0324843
-0.0306991
-0.0291059
-0.0276857
-0.0264175
-0.0252782
-0.0242473
-0.0233027
-0.0224237
-0.0215898
-0.0207836
-0.0199922
-0.0192009
-0.0183948
-0.0175736
-0.016734
-0.0158751
-0.0150015
-0.014118
-0.0132348
-0.0123597
-0.0115058
-0.0106813
-0.00989918
-0.0091652
-0.00848995
-0.0078749
-0.00732627
-0.00684124
-0.00641987
-0.00605616
-0.00574336
-0.0054765
-0.00524005
-0.00503563
-0.00483588
-0.00465627
-0.00445268
-0.00426299
-0.00402019
-0.00379532
-0.00348842
-0.00321911
-0.00283682
-0.00253671
-0.00207861
-0.00178991
-0.00125727
-0.00105755
-0.000437634
-0.000450022
0.000288672
-0.0479837
-0.0447684
-0.0418086
-0.0391043
-0.036651
-0.0344402
-0.0324594
-0.0306934
-0.0291242
-0.0277316
-0.0264935
-0.0253855
-0.0243852
-0.023469
-0.0226151
-0.021802
-0.0210115
-0.020229
-0.0194402
-0.0186318
-0.0178017
-0.0169478
-0.01607
-0.0151738
-0.0142649
-0.0133545
-0.0124514
-0.0115697
-0.0107184
-0.00991153
-0.00915536
-0.00846133
-0.00783129
-0.00727203
-0.00678075
-0.0063578
-0.00599689
-0.00569104
-0.0054346
-0.00521136
-0.00502199
-0.0048381
-0.00467415
-0.00448525
-0.00430797
-0.00407515
-0.00385653
-0.00355382
-0.00328335
-0.00289971
-0.00259158
-0.00212889
-0.00182718
-0.00128993
-0.00107462
-0.000454398
-0.000450286
0.000275086
-0.0480372
-0.0447996
-0.041824
-0.0391108
-0.0366555
-0.0344491
-0.032479
-0.030729
-0.0291803
-0.0278112
-0.0265987
-0.0255172
-0.0245426
-0.0236504
-0.0228172
-0.0220208
-0.0212422
-0.0204657
-0.0196773
-0.0188645
-0.0180244
-0.0171558
-0.0162593
-0.0153411
-0.014408
-0.013472
-0.0125428
-0.0116354
-0.0107594
-0.00992969
-0.00915321
-0.00844202
-0.0077983
-0.00722937
-0.0067324
-0.00630802
-0.00594964
-0.00565011
-0.00540312
-0.00519187
-0.0050161
-0.00484657
-0.00469664
-0.0045208
-0.00435439
-0.00413038
-0.00391687
-0.00361746
-0.00334524
-0.00295991
-0.00264376
-0.00217661
-0.00186231
-0.00132098
-0.00109056
-0.000470995
-0.000450213
0.000260232
-0.048138
-0.0448797
-0.0418893
-0.0391672
-0.0367089
-0.0345054
-0.0325434
-0.0308063
-0.0292741
-0.0279244
-0.0267328
-0.0256731
-0.0247195
-0.0238465
-0.0230295
-0.0222458
-0.0214755
-0.0207023
-0.0199119
-0.0190931
-0.0182421
-0.0173585
-0.0164434
-0.0155042
-0.0145482
-0.0135881
-0.0126347
-0.0117034
-0.0108048
-0.0099543
-0.00915931
-0.00843254
-0.0077764
-0.00719868
-0.00669652
-0.00627081
-0.00591464
-0.00562074
-0.00538218
-0.00518162
-0.00501794
-0.00486117
-0.00472362
-0.00455922
-0.00440215
-0.0041857
-0.00397612
-0.00367913
-0.00340462
-0.00301728
-0.00269315
-0.00222168
-0.00189527
-0.00135038
-0.00110538
-0.000487405
-0.000449848
0.00024424
-0.048287
-0.0450095
-0.042005
-0.0392738
-0.0368115
-0.0346089
-0.0326524
-0.0309247
-0.0294053
-0.0280706
-0.0268954
-0.0258526
-0.0249153
-0.0240568
-0.0232519
-0.0224769
-0.0217115
-0.0209387
-0.0201444
-0.0193179
-0.0184551
-0.0175563
-0.0166232
-0.0156638
-0.0146861
-0.0137037
-0.0127278
-0.0117747
-0.0108554
-0.009986
-0.00917422
-0.00843334
-0.00776595
-0.00718025
-0.00667333
-0.00624629
-0.00589196
-0.00560294
-0.00537172
-0.00518053
-0.00502739
-0.00488175
-0.00475488
-0.00460031
-0.00445107
-0.00424085
-0.00403411
-0.0037387
-0.0034614
-0.00307173
-0.00273974
-0.00226408
-0.00192609
-0.00137815
-0.00111914
-0.000503632
-0.000449249
0.000227252
-0.0484847
-0.0451893
-0.042171
-0.0394304
-0.0369628
-0.0347592
-0.0328054
-0.0310837
-0.029573
-0.028249
-0.0270857
-0.026055
-0.0251292
-0.0242808
-0.0234836
-0.0227137
-0.0219499
-0.021175
-0.0203748
-0.0195393
-0.0186641
-0.01775
-0.0167994
-0.0158207
-0.0148227
-0.0138196
-0.012823
-0.0118501
-0.0109119
-0.0100254
-0.00919846
-0.00844482
-0.00776724
-0.00717425
-0.00666289
-0.00623446
-0.00588151
-0.00559658
-0.00537156
-0.00518837
-0.00504421
-0.00490805
-0.00479017
-0.00464383
-0.00450091
-0.00429562
-0.00409068
-0.00379607
-0.00351551
-0.00312325
-0.00278352
-0.00230386
-0.00195483
-0.00140436
-0.00113192
-0.000519702
-0.000448487
0.000209413
-0.0487311
-0.045419
-0.0423871
-0.0396364
-0.0371622
-0.0349553
-0.0330013
-0.0312822
-0.0297762
-0.0284586
-0.0273024
-0.0262793
-0.0253604
-0.0245178
-0.0237244
-0.0229559
-0.0221907
-0.0214114
-0.0206036
-0.0197579
-0.0188699
-0.0179406
-0.016973
-0.0159761
-0.0149591
-0.0139369
-0.0129214
-0.0119303
-0.0109751
-0.0100731
-0.00923248
-0.0084673
-0.00778044
-0.00718074
-0.00666515
-0.00623518
-0.00588309
-0.00560137
-0.00538141
-0.00520483
-0.00506808
-0.00493975
-0.0048292
-0.0046895
-0.00455146
-0.00434984
-0.00414572
-0.00385115
-0.00356695
-0.00317186
-0.00282457
-0.00234109
-0.00198158
-0.00142909
-0.00114381
-0.000535651
-0.000447645
0.000190873
-0.0490261
-0.045698
-0.0426527
-0.039891
-0.0374086
-0.0351959
-0.0332388
-0.0315187
-0.0300134
-0.0286979
-0.0275445
-0.0265243
-0.0256081
-0.024767
-0.0239737
-0.0232033
-0.022434
-0.021648
-0.0208311
-0.0199743
-0.019073
-0.0181288
-0.0171449
-0.0161309
-0.0150963
-0.0140565
-0.0130238
-0.0120162
-0.0110457
-0.0101297
-0.00927666
-0.008501
-0.00780564
-0.00719966
-0.00667997
-0.00624819
-0.00589636
-0.00561695
-0.00540085
-0.00522948
-0.00509859
-0.00497647
-0.00487162
-0.00473704
-0.00460248
-0.00440335
-0.00419913
-0.00390391
-0.00361573
-0.00321763
-0.00286298
-0.0023759
-0.0020065
-0.00145247
-0.00115493
-0.000551532
-0.00044681
0.000171782
-0.049369
-0.0460256
-0.0429665
-0.0401929
-0.0377004
-0.0354797
-0.0335163
-0.0317916
-0.0302831
-0.0289654
-0.0278105
-0.026789
-0.0258712
-0.0250278
-0.024231
-0.0234556
-0.0226796
-0.0218851
-0.0210579
-0.0201891
-0.0192744
-0.0183155
-0.0173161
-0.016286
-0.0152352
-0.0141793
-0.013131
-0.0121086
-0.0111241
-0.0101955
-0.00933129
-0.00854605
-0.00784282
-0.00723088
-0.00670707
-0.00627313
-0.00592091
-0.00564284
-0.00542941
-0.00526184
-0.00513528
-0.00501779
-0.00491707
-0.00478614
-0.00465374
-0.00445599
-0.00425083
-0.00395434
-0.0036619
-0.00326064
-0.00289889
-0.00240845
-0.00202972
-0.00147464
-0.00116543
-0.000567402
-0.000446075
0.000152289
-0.0497589
-0.0464004
-0.0433271
-0.0405404
-0.0380361
-0.0358047
-0.033832
-0.0320991
-0.0305836
-0.0292597
-0.0280991
-0.0270721
-0.0261487
-0.0252993
-0.0244957
-0.0237126
-0.0229277
-0.022123
-0.0212842
-0.020403
-0.0194748
-0.0185017
-0.0174875
-0.0164425
-0.0153767
-0.0143062
-0.0132437
-0.0122079
-0.011211
-0.010271
-0.00939652
-0.00860247
-0.00789188
-0.00727415
-0.0067461
-0.00630957
-0.00595625
-0.00567852
-0.00546655
-0.00530139
-0.00517766
-0.00506326
-0.00496517
-0.0048365
-0.00470503
-0.00450762
-0.00430076
-0.00400245
-0.00370553
-0.00330103
-0.00293245
-0.0024389
-0.00205143
-0.00149576
-0.00117545
-0.000583322
-0.000445532
0.00013254
-0.0501944
-0.0468209
-0.0437329
-0.0409317
-0.0384135
-0.036169
-0.0341838
-0.0324394
-0.0309131
-0.029579
-0.0284087
-0.0273724
-0.0264397
-0.0255809
-0.0247675
-0.0239742
-0.0231782
-0.0223618
-0.0215107
-0.0206165
-0.019675
-0.0186881
-0.01766
-0.0166011
-0.0155216
-0.0144378
-0.0133626
-0.0123147
-0.0113065
-0.0103562
-0.00947242
-0.00867018
-0.00795257
-0.00732913
-0.00679664
-0.00635701
-0.00600181
-0.0057234
-0.00551168
-0.00534755
-0.00522521
-0.00511243
-0.00501556
-0.00488782
-0.00475615
-0.00455813
-0.00434888
-0.00404829
-0.00374672
-0.00333895
-0.00296383
-0.00246745
-0.00207181
-0.00151599
-0.00118512
-0.000599351
-0.000445271
0.000112675
-0.0506736
-0.0472852
-0.0441817
-0.0413647
-0.0388306
-0.0365703
-0.0345698
-0.0328105
-0.0312697
-0.0299217
-0.028738
-0.0276887
-0.0267432
-0.0258719
-0.025046
-0.02424
-0.0234313
-0.0226019
-0.0217377
-0.0208303
-0.0198755
-0.0188754
-0.0178342
-0.0167625
-0.0156706
-0.0145747
-0.0134881
-0.0124294
-0.011411
-0.0104513
-0.00955892
-0.00874898
-0.00802461
-0.00739541
-0.00685819
-0.00641487
-0.00605701
-0.00577687
-0.0055642
-0.00539978
-0.00527743
-0.00516486
-0.00506786
-0.00493983
-0.0048069
-0.00460743
-0.00439519
-0.0040919
-0.0037856
-0.00337455
-0.00299322
-0.0024943
-0.00209103
-0.00153549
-0.00119459
-0.000615544
-0.000445373
9.28272e-05
-0.047791
-0.0446711
-0.0418369
-0.0392849
-0.0370065
-0.0349877
-0.0332102
-0.0316516
-0.0302862
-0.0290855
-0.0280198
-0.0270584
-0.0261716
-0.0253307
-0.0245101
-0.023687
-0.0228436
-0.0219656
-0.0210448
-0.0200769
-0.0190642
-0.0180107
-0.0169272
-0.015824
-0.0147174
-0.0136205
-0.012552
-0.0115245
-0.0105562
-0.00965585
-0.00883857
-0.00810759
-0.0074725
-0.00693019
-0.00648257
-0.00612121
-0.00583832
-0.00562351
-0.0054575
-0.00533381
-0.00522012
-0.00512173
-0.00499229
-0.00485713
-0.00465543
-0.00443969
-0.00413338
-0.00382228
-0.00340802
-0.00302079
-0.00251964
-0.00210929
-0.00155442
-0.00120398
-0.00063195
-0.000445913
7.31191e-05
-0.0483357
-0.0451986
-0.0423458
-0.039774
-0.037475
-0.0354352
-0.0336366
-0.0320569
-0.0306708
-0.0294499
-0.0283646
-0.0273845
-0.0264796
-0.0256214
-0.0247842
-0.0239454
-0.023087
-0.0221948
-0.0212605
-0.0202799
-0.019255
-0.0181901
-0.0170958
-0.0159824
-0.014866
-0.0137599
-0.0126828
-0.011647
-0.0106707
-0.0097629
-0.00893857
-0.00820103
-0.00755986
-0.00701205
-0.00655948
-0.00619378
-0.0059071
-0.00568903
-0.00552017
-0.00539389
-0.00527782
-0.00517688
-0.00504496
-0.00490672
-0.00470212
-0.00448242
-0.00417282
-0.00385691
-0.00343953
-0.00304675
-0.00254367
-0.00212676
-0.00157292
-0.00121342
-0.000648606
-0.000446956
5.36643e-05
-0.0489165
-0.0457615
-0.0428886
-0.0402952
-0.0379734
-0.03591
-0.0340874
-0.0324838
-0.0310739
-0.0298299
-0.0287222
-0.0277205
-0.0267952
-0.0259177
-0.0250625
-0.0242067
-0.0233325
-0.0224256
-0.0214778
-0.0204847
-0.0194483
-0.0183727
-0.0172685
-0.0161458
-0.0150208
-0.0139065
-0.0128215
-0.0117781
-0.0107946
-0.00987968
-0.0090485
-0.00830439
-0.0076569
-0.00710314
-0.00664495
-0.00627408
-0.00598261
-0.00576017
-0.00558728
-0.00545721
-0.00533758
-0.00523302
-0.00509768
-0.00495557
-0.00474746
-0.00452344
-0.00421034
-0.00388964
-0.00346926
-0.00307127
-0.00256658
-0.00214358
-0.00159113
-0.00122302
-0.000665542
-0.000448551
3.45645e-05
-0.0495307
-0.0463568
-0.0434627
-0.040846
-0.0384993
-0.03641
-0.0345609
-0.0329305
-0.0314942
-0.0302243
-0.0290916
-0.028066
-0.0271182
-0.0262195
-0.0253447
-0.0244709
-0.0235802
-0.0226583
-0.021697
-0.0206917
-0.0196443
-0.0185588
-0.0174455
-0.0163145
-0.0151817
-0.0140601
-0.0129679
-0.0119177
-0.0109273
-0.0100057
-0.00916782
-0.00841708
-0.00776298
-0.00720281
-0.00673833
-0.00636148
-0.00606424
-0.00583639
-0.00565834
-0.00552337
-0.00539911
-0.00528993
-0.0051503
-0.00500362
-0.00479147
-0.0045628
-0.00424606
-0.00392063
-0.0034974
-0.00309452
-0.00258855
-0.00215992
-0.00160917
-0.00123286
-0.000682773
-0.000450738
1.59093e-05
-0.0501749
-0.0469815
-0.0440649
-0.0414234
-0.03905
-0.0369326
-0.0350547
-0.0333953
-0.03193
-0.0306318
-0.0294718
-0.0284202
-0.0274479
-0.0265266
-0.0256309
-0.0247381
-0.0238304
-0.0228932
-0.0219184
-0.0209012
-0.0198433
-0.0187485
-0.0176269
-0.0164884
-0.0153486
-0.0142203
-0.0131218
-0.0120652
-0.0110685
-0.0101404
-0.00929587
-0.00853841
-0.00787741
-0.00731037
-0.00683895
-0.00645534
-0.00615141
-0.00591716
-0.00573291
-0.005592
-0.0054621
-0.00534741
-0.0052027
-0.00505083
-0.0048342
-0.0046006
-0.00428011
-0.00395002
-0.00352411
-0.00311668
-0.00260972
-0.0021759
-0.00162713
-0.001243
-0.000700301
-0.000453539
-2.22339e-06
-0.0508443
-0.0476307
-0.0446908
-0.0420233
-0.0396218
-0.0374747
-0.0355661
-0.0338755
-0.0323793
-0.0310507
-0.0298615
-0.0287821
-0.0277838
-0.0268384
-0.0259207
-0.0250082
-0.0240828
-0.0231302
-0.022142
-0.0211131
-0.0200451
-0.0189416
-0.0178123
-0.016667
-0.0155209
-0.0143868
-0.0132824
-0.0122201
-0.0112173
-0.010283
-0.00943185
-0.00866757
-0.00799938
-0.00742504
-0.00694607
-0.00655499
-0.00624353
-0.00600197
-0.00581055
-0.00566276
-0.00552632
-0.0054053
-0.00525481
-0.0050972
-0.00487568
-0.00463695
-0.00431263
-0.00397798
-0.00354957
-0.00313788
-0.00263024
-0.00219162
-0.00164508
-0.00125351
-0.000718114
-0.000456962
-1.97678e-05
-0.0515356
-0.0483016
-0.0453377
-0.0426432
-0.0402123
-0.038034
-0.0360931
-0.0343697
-0.0328407
-0.0314801
-0.0302599
-0.0291512
-0.0281254
-0.0271548
-0.0262143
-0.0252813
-0.0243379
-0.0233697
-0.022368
-0.0213278
-0.0202501
-0.0191384
-0.0180021
-0.0168505
-0.0156988
-0.0145593
-0.0134497
-0.0123819
-0.0113734
-0.0104331
-0.00957532
-0.00880407
-0.0081284
-0.00754631
-0.0070592
-0.00665994
-0.00634014
-0.00609043
-0.00589094
-0.0057354
-0.00559157
-0.00546349
-0.00530659
-0.00514276
-0.00491603
-0.00467198
-0.0043438
-0.00400468
-0.00357395
-0.00315831
-0.00265026
-0.00220721
-0.00166311
-0.00126444
-0.000736204
-0.000461014
-3.66711e-05
-0.0522614
-0.0490054
-0.0460157
-0.043292
-0.0408294
-0.0386176
-0.0366419
-0.0348832
-0.0333191
-0.031924
-0.0306707
-0.0295307
-0.0284758
-0.0274786
-0.0265141
-0.0255599
-0.0245981
-0.0236141
-0.022599
-0.0215476
-0.0204607
-0.0193412
-0.0181984
-0.0170412
-0.0158843
-0.0147399
-0.0136253
-0.0125524
-0.0115382
-0.0105918
-0.00972726
-0.00894872
-0.00826507
-0.00767463
-0.00717864
-0.00677039
-0.00644134
-0.00618255
-0.00597406
-0.00580989
-0.00565785
-0.005522
-0.00535811
-0.00518762
-0.00495538
-0.00470589
-0.00437384
-0.00403039
-0.00359752
-0.00317821
-0.00267
-0.00222288
-0.00168135
-0.0012759
-0.000754589
-0.000465721
-5.28978e-05
-0.0530331
-0.0497525
-0.0467342
-0.0439785
-0.0414811
-0.0392325
-0.0372189
-0.0354217
-0.0338194
-0.0323871
-0.0310981
-0.0299245
-0.0288384
-0.0278128
-0.0268229
-0.0258465
-0.0248654
-0.023865
-0.0228363
-0.0217737
-0.0206776
-0.0195507
-0.0184017
-0.0172391
-0.0160775
-0.0149285
-0.0138092
-0.0127312
-0.0117115
-0.0107588
-0.00988726
-0.00910108
-0.00840895
-0.00780957
-0.00730399
-0.00688597
-0.00654683
-0.0062781
-0.00605973
-0.00588611
-0.00572509
-0.00558081
-0.00540937
-0.00523182
-0.00499381
-0.00473876
-0.00440284
-0.00405517
-0.00362035
-0.00319764
-0.00268951
-0.0022386
-0.0016998
-0.00128785
-0.000773241
-0.000471038
-6.84206e-05
-0.0537224
-0.0504264
-0.0473882
-0.0446089
-0.0420846
-0.0398065
-0.0377613
-0.0359315
-0.0342959
-0.0328303
-0.0315089
-0.030304
-0.0291885
-0.0281355
-0.0271208
-0.0261221
-0.0251214
-0.0241042
-0.0230613
-0.0219868
-0.0208809
-0.0197461
-0.0185906
-0.0174228
-0.0162567
-0.0151036
-0.0139803
-0.0128983
-0.011874
-0.0109165
-0.0100392
-0.00924679
-0.00854752
-0.00794043
-0.00742637
-0.0069995
-0.00665101
-0.00637285
-0.00614494
-0.00596196
-0.00579198
-0.00563904
-0.00545989
-0.00527491
-0.00503095
-0.00477
-0.00443017
-0.00407811
-0.00364154
-0.00321544
-0.00270779
-0.00225325
-0.00171765
-0.00129941
-0.000791709
-0.000476519
-8.31901e-05
)
;

boundaryField
{
    inlet
    {
        type            zeroGradient;
    }
    outlet
    {
        type            fixedValue;
        value           uniform 0;
    }
    cylinder
    {
        type            zeroGradient;
    }
    top
    {
        type            symmetryPlane;
    }
    bottom
    {
        type            symmetryPlane;
    }
    defaultFaces
    {
        type            empty;
    }
    procBoundary7to3
    {
        type            processor;
        value           nonuniform List<scalar> 
57
(
-0.0533521
-0.0503774
-0.0476231
-0.0450869
-0.0427627
-0.0406406
-0.0387071
-0.0369457
-0.0353372
-0.0338607
-0.0324942
-0.0312155
-0.0300026
-0.0288355
-0.0276957
-0.026568
-0.0254398
-0.0254398
-0.0245822
-0.0234157
-0.0222383
-0.0210512
-0.0198598
-0.0186702
-0.0174924
-0.0163353
-0.015211
-0.0141291
-0.0131015
-0.0121361
-0.0112427
-0.0104258
-0.00969073
-0.00903817
-0.00846675
-0.00797363
-0.00754934
-0.00718909
-0.00687446
-0.00660216
-0.00634498
-0.00610575
-0.00584994
-0.0055912
-0.00528996
-0.00497394
-0.00460093
-0.00421343
-0.00376791
-0.00332064
-0.00282555
-0.00235177
-0.00184735
-0.00139196
-0.000930318
-0.000533476
-0.00017503
)
;
    }
    procBoundary7to6
    {
        type            processor;
        value           nonuniform List<scalar> 
36
(
-0.0542199
-0.0542199
-0.0548038
-0.0553664
-0.0559459
-0.0524765
-0.0522282
-0.0520087
-0.0518201
-0.0516644
-0.0515438
-0.0514602
-0.0514156
-0.0514117
-0.0514501
-0.0515321
-0.0516591
-0.0518318
-0.0520512
-0.0523174
-0.0526306
-0.0529904
-0.053396
-0.0538463
-0.0543397
-0.0511945
-0.0511945
-0.0517546
-0.0523511
-0.0529812
-0.0536417
-0.0543273
-0.055035
-0.0557785
-0.0565702
-0.0572702
)
;
    }
    procBoundary7to11
    {
        type            processor;
        value           nonuniform List<scalar> 
59
(
-0.0496685
-0.0467511
-0.043982
-0.0413696
-0.0389003
-0.0365722
-0.0343793
-0.0323205
-0.030385
-0.0285713
-0.0268761
-0.0252966
-0.0238268
-0.0224631
-0.0211999
-0.0200323
-0.0189532
-0.0179552
-0.0170305
-0.0161783
-0.0153834
-0.0146406
-0.0139436
-0.0132876
-0.0126665
-0.0120773
-0.0115163
-0.0109827
-0.0104728
-0.0099868
-0.0095203
-0.0090735
-0.00864081
-0.0082216
-0.00781305
-0.00741183
-0.00701381
-0.0066183
-0.00622526
-0.00583098
-0.00544353
-0.00505192
-0.00467716
-0.00429217
-0.00393984
-0.00356294
-0.00324164
-0.0028677
-0.00258485
-0.00220132
-0.00196736
-0.00155475
-0.00143722
-0.00143722
-0.000958567
-0.000891415
-0.000308302
-0.000436471
0.000339505
)
;
    }
}


// ************************************************************************* //
