/*--------------------------------*- C++ -*----------------------------------*\
  =========                 |
  \\      /  F ield         | OpenFOAM: The Open Source CFD Toolbox
   \\    /   O peration     | Website:  https://openfoam.org
    \\  /    A nd           | Version:  7
     \\/     M anipulation  |
\*---------------------------------------------------------------------------*/
FoamFile
{
    version     2.0;
    format      ascii;
    class       volVectorField;
    location    "60";
    object      U;
}
// * * * * * * * * * * * * * * * * * * * * * * * * * * * * * * * * * * * * * //

dimensions      [0 1 -1 0 0 0 0];

internalField   nonuniform List<vector> 
1987
(
(1.02148 0.0546417 0)
(1.02029 0.0519141 0)
(1.01929 0.0492208 0)
(1.01846 0.0466128 0)
(1.01782 0.0441377 0)
(1.01734 0.0418381 0)
(1.01702 0.0397502 0)
(1.01684 0.0379023 0)
(1.01678 0.0363133 0)
(1.01681 0.0349923 0)
(1.01691 0.0339376 0)
(1.01703 0.0331369 0)
(1.01715 0.0325677 0)
(1.01723 0.0321977 0)
(1.01724 0.0319875 0)
(1.01714 0.0318905 0)
(1.01693 0.0318574 0)
(1.01656 0.0318357 0)
(1.01604 0.0317765 0)
(1.01534 0.0316308 0)
(1.01447 0.0313601 0)
(1.01343 0.0309268 0)
(1.01224 0.0303113 0)
(1.01091 0.0294925 0)
(1.00947 0.0284748 0)
(1.00791 0.0272538 0)
(1.00631 0.0258607 0)
(1.00465 0.0243036 0)
(1.00299 0.0226407 0)
(1.00132 0.0208835 0)
(0.999712 0.0191167 0)
(0.998129 0.0173418 0)
(0.996668 0.015669 0)
(0.995261 0.0140731 0)
(0.994022 0.0126886 0)
(0.99286 0.0114454 0)
(0.991898 0.0105026 0)
(0.991021 0.00972806 0)
(0.990353 0.00930616 0)
(0.989754 0.00903099 0)
(0.989343 0.00911388 0)
(0.988956 0.00927165 0)
(0.988712 0.00974707 0)
(0.988416 0.0101833 0)
(0.988216 0.0108684 0)
(0.987861 0.0113723 0)
(0.987593 0.0120638 0)
(0.987034 0.0124147 0)
(0.986639 0.0129502 0)
(0.985764 0.0129664 0)
(0.985268 0.0132728 0)
(0.984016 0.0128552 0)
(0.983527 0.0129602 0)
(0.981904 0.0121341 0)
(0.981585 0.0121292 0)
(0.979698 0.0110973 0)
(1.04013 0.054125 0)
(1.03871 0.051463 0)
(1.03748 0.048836 0)
(1.03645 0.0462929 0)
(1.0356 0.0438798 0)
(1.03493 0.0416374 0)
(1.03442 0.0396005 0)
(1.03405 0.0377959 0)
(1.03379 0.0362416 0)
(1.03362 0.0349457 0)
(1.03349 0.0339063 0)
(1.03339 0.0331109 0)
(1.03327 0.0325372 0)
(1.0331 0.0321537 0)
(1.03285 0.0319219 0)
(1.03249 0.0317963 0)
(1.03201 0.0317295 0)
(1.03138 0.0316705 0)
(1.0306 0.0315724 0)
(1.02966 0.0313878 0)
(1.02857 0.03108 0)
(1.02732 0.030613 0)
(1.02594 0.0299684 0)
(1.02445 0.0291261 0)
(1.02288 0.0280911 0)
(1.02122 0.0268594 0)
(1.01955 0.0254622 0)
(1.01785 0.0239073 0)
(1.01618 0.0222525 0)
(1.01453 0.020509 0)
(1.01296 0.0187604 0)
(1.01144 0.0170082 0)
(1.01006 0.0153608 0)
(1.00873 0.0137936 0)
(1.00758 0.0124386 0)
(1.00649 0.0112272 0)
(1.00559 0.0103144 0)
(1.00475 0.00957097 0)
(1.0041 0.00917474 0)
(1.00348 0.00892577 0)
(1.00303 0.00902504 0)
(1.00255 0.00920021 0)
(1.00221 0.00967874 0)
(1.00176 0.0101221 0)
(1.00142 0.0107958 0)
(1.00087 0.0112986 0)
(1.00045 0.0119659 0)
(0.999684 0.0123133 0)
(0.999142 0.0128153 0)
(0.998077 0.0128336 0)
(0.997462 0.0131011 0)
(0.996056 0.0126986 0)
(0.995487 0.0127638 0)
(0.993751 0.0119691 0)
(0.993392 0.0119329 0)
(0.991412 0.0109392 0)
(1.05696 0.0536333 0)
(1.05532 0.0510347 0)
(1.05388 0.0484707 0)
(1.05265 0.0459887 0)
(1.05161 0.0436327 0)
(1.05076 0.0414423 0)
(1.05007 0.0394506 0)
(1.04951 0.0376833 0)
(1.04907 0.0361578 0)
(1.0487 0.0348813 0)
(1.04838 0.0338519 0)
(1.04807 0.0330568 0)
(1.04774 0.0324745 0)
(1.04735 0.032074 0)
(1.04687 0.031818 0)
(1.04629 0.0316624 0)
(1.04558 0.0315613 0)
(1.04472 0.0314655 0)
(1.04372 0.0313298 0)
(1.04256 0.0311087 0)
(1.04127 0.0307669 0)
(1.03985 0.03027 0)
(1.03832 0.0296007 0)
(1.03669 0.0287396 0)
(1.035 0.0276924 0)
(1.03327 0.026455 0)
(1.03154 0.0250588 0)
(1.02981 0.023511 0)
(1.02815 0.021869 0)
(1.02652 0.020143 0)
(1.025 0.0184159 0)
(1.02355 0.0166886 0)
(1.02224 0.015068 0)
(1.021 0.0135297 0)
(1.01994 0.0122031 0)
(1.01894 0.0110215 0)
(1.01812 0.0101349 0)
(1.01733 0.00941873 0)
(1.01671 0.00904277 0)
(1.01609 0.00881515 0)
(1.01562 0.0089247 0)
(1.01508 0.00911274 0)
(1.01466 0.00958886 0)
(1.01409 0.0100362 0)
(1.01364 0.0106944 0)
(1.01293 0.0111951 0)
(1.01238 0.0118362 0)
(1.01144 0.0121811 0)
(1.01078 0.0126497 0)
(1.00955 0.0126725 0)
(1.00884 0.0129028 0)
(1.00731 0.0125186 0)
(1.00667 0.0125466 0)
(1.00485 0.0117863 0)
(1.00446 0.0117212 0)
(1.00241 0.010768 0)
(1.07188 0.0530365 0)
(1.07004 0.0505127 0)
(1.06841 0.0480216 0)
(1.067 0.0456087 0)
(1.0658 0.0433164 0)
(1.06477 0.0411826 0)
(1.06392 0.0392393 0)
(1.0632 0.0375111 0)
(1.06259 0.0360146 0)
(1.06205 0.0347568 0)
(1.06155 0.0337355 0)
(1.06106 0.0329387 0)
(1.06054 0.0323454 0)
(1.05995 0.0319257 0)
(1.05928 0.0316438 0)
(1.0585 0.031457 0)
(1.0576 0.0313214 0)
(1.05655 0.0311896 0)
(1.05536 0.0310183 0)
(1.05403 0.0307635 0)
(1.05258 0.030392 0)
(1.051 0.0298702 0)
(1.04935 0.0291822 0)
(1.04761 0.0283089 0)
(1.04584 0.0272566 0)
(1.04404 0.0260211 0)
(1.04228 0.0246334 0)
(1.04053 0.0231003 0)
(1.03887 0.0214779 0)
(1.03727 0.0197761 0)
(1.03581 0.018076 0)
(1.03442 0.0163783 0)
(1.0332 0.0147874 0)
(1.03205 0.0132801 0)
(1.03108 0.011982 0)
(1.03016 0.0108291 0)
(1.02942 0.00996581 0)
(1.0287 0.00927327 0)
(1.02813 0.00891222 0)
(1.02752 0.0087008 0)
(1.02705 0.00881427 0)
(1.02647 0.00900998 0)
(1.02601 0.00947784 0)
(1.02535 0.00992526 0)
(1.02481 0.010564 0)
(1.02398 0.0110608 0)
(1.02332 0.0116741 0)
(1.02224 0.0120169 0)
(1.02148 0.012453 0)
(1.02013 0.0124824 0)
(1.01933 0.0126786 0)
(1.0177 0.0123154 0)
(1.01701 0.0123103 0)
(1.01513 0.0115865 0)
(1.01472 0.0114965 0)
(1.01264 0.0105852 0)
(1.06688 0.0308514 0)
(1.06554 0.030646 0)
(1.06407 0.0303601 0)
(1.06249 0.029962 0)
(1.0608 0.0294194 0)
(1.05904 0.0287172 0)
(1.05722 0.0278372 0)
(1.05538 0.0267856 0)
(1.05354 0.0255583 0)
(1.05175 0.0241855 0)
(1.05 0.0226735 0)
(1.04836 0.0210771 0)
(1.0468 0.0194055 0)
(1.04539 0.0177376 0)
(1.04407 0.0160742 0)
(1.04292 0.0145165 0)
(1.04186 0.0130426 0)
(1.04098 0.0117737 0)
(1.04015 0.0106494 0)
(1.0395 0.00980744 0)
(1.03884 0.00913584 0)
(1.03833 0.00878529 0)
(1.03775 0.00858574 0)
(1.0373 0.00869745 0)
(1.0367 0.00889614 0)
(1.03621 0.00935027 0)
(1.03548 0.00979401 0)
(1.03489 0.0104093 0)
(1.03396 0.0109002 0)
(1.03322 0.011484 0)
(1.03204 0.0118247 0)
(1.03119 0.0122291 0)
(1.02975 0.0122665 0)
(1.02888 0.0124315 0)
(1.02719 0.0120914 0)
(1.02645 0.0120575 0)
(1.02454 0.011372 0)
(1.02411 0.0112611 0)
(1.02202 0.0103927 0)
(0.123303 0.0120011 6.58635e-23)
(0.136354 0.0102131 -2.09554e-22)
(0.149393 0.0081421 2.25857e-23)
(0.162399 0.00584927 2.47005e-22)
(0.175348 0.00340533 -9.63683e-23)
(0.188217 0.000887525 -3.38353e-23)
(0.200985 -0.00162048 2.06203e-23)
(0.213631 -0.00403254 -2.05901e-23)
(0.226135 -0.00627252 -1.28122e-22)
(0.23848 -0.00826203 1.4009e-23)
(0.250656 -0.00993004 1.24021e-22)
(0.262654 -0.0112195 -2.38672e-23)
(0.274472 -0.012083 -2.36799e-23)
(0.286108 -0.0124912 -4.89917e-23)
(0.297563 -0.0124283 1.8877e-24)
(0.308841 -0.0118971 1.03115e-23)
(0.319943 -0.0109176 7.29015e-23)
(0.330865 -0.0095288 -1.28677e-23)
(0.341603 -0.00778226 -6.92855e-23)
(0.352148 -0.00574672 6.93845e-23)
(0.362488 -0.00350266 -4.296e-23)
(0.372606 -0.0011376 -1.20418e-23)
(0.38249 0.00125688 2.664e-23)
(0.392123 0.00358357 -1.72947e-23)
(0.401497 0.00575171 -1.21844e-23)
(0.410605 0.00767517 3.81912e-23)
(0.419452 0.00927919 -4.07733e-23)
(0.428046 0.0105002 4.41122e-24)
(0.436401 0.011294 -6.27051e-24)
(0.444544 0.0116301 -7.13431e-24)
(0.452491 0.0115033 1.2777e-23)
(0.46028 0.0109215 1.18084e-23)
(0.467913 0.00992263 -8.75218e-24)
(0.475439 0.008552 -1.63697e-23)
(0.482825 0.0068851 -4.00463e-24)
(0.490142 0.00499844 9.32391e-24)
(0.497301 0.00298949 7.08872e-24)
(0.504425 0.000955217 -4.26324e-24)
(0.511339 -0.00101023 -4.32737e-24)
(0.51827 -0.00279998 3.43877e-24)
(0.52491 -0.00435536 -1.00404e-23)
(0.531669 -0.00556455 2.73746e-25)
(0.538021 -0.00643823 -5.98147e-24)
(0.544671 -0.00685874 5.76958e-24)
(0.550729 -0.00692976 6.17754e-24)
(0.557363 -0.00652995 7.10242e-24)
(0.563098 -0.00584875 1.31652e-24)
(0.569824 -0.00478921 -1.74578e-24)
(0.575151 -0.00355436 -5.31531e-24)
(0.582082 -0.00216372 -4.89832e-24)
(0.58684 -0.000657501 1.19296e-24)
(0.594123 0.000630833 1.22991e-24)
(0.127798 0.0154079 -5.985e-23)
(0.140491 0.0135787 4.2735e-22)
(0.15318 0.0114622 -2.44369e-22)
(0.165853 0.00911924 -7.664e-22)
(0.178499 0.0066227 9.11939e-22)
(0.191103 0.00404766 -2.10819e-22)
(0.203651 0.00147761 7.34825e-24)
(0.21613 -0.00100671 -1.99431e-22)
(0.228528 -0.00330574 3.37646e-22)
(0.240828 -0.00536179 -1.0871e-22)
(0.253021 -0.00709929 -3.00285e-22)
(0.265097 -0.00845956 2.07703e-22)
(0.27705 -0.00939333 -2.37676e-22)
(0.288871 -0.00987149 7.79508e-23)
(0.300553 -0.00987773 9.8069e-24)
(0.312088 -0.00941517 -2.26327e-23)
(0.323466 -0.00850408 -2.12425e-23)
(0.33467 -0.00718473 -1.00872e-22)
(0.345685 -0.00550884 7.40642e-23)
(0.356486 -0.00354645 1.412e-23)
(0.367051 -0.0013784 -7.73331e-23)
(0.377351 0.000911179 1.36083e-22)
(0.387364 0.00322673 -6.27185e-23)
(0.397068 0.00547308 6.18121e-23)
(0.406449 0.00756095 -5.96122e-23)
(0.415499 0.00940533 -4.90033e-23)
(0.424221 0.0109337 7.096e-23)
(0.432628 0.0120831 -8.43468e-23)
(0.440741 0.0128115 6.61067e-24)
(0.448593 0.0130878 6.18948e-23)
(0.456212 0.0129088 -9.22042e-23)
(0.463647 0.0122802 1.86034e-23)
(0.470915 0.0112413 -2.85533e-23)
(0.478076 0.0098337 -2.35195e-23)
(0.485115 0.00813501 3.5003e-23)
(0.492111 0.00621636 -9.00137e-23)
(0.49899 0.00417949 3.27577e-23)
(0.50588 0.00211422 8.35702e-24)
(0.512616 0.000122447 -1.48184e-23)
(0.519428 -0.00169855 -1.55948e-23)
(0.526009 -0.00327805 1.44751e-23)
(0.532767 -0.0045184 2.69066e-23)
(0.539166 -0.00541219 1.81359e-23)
(0.545912 -0.00586323 -1.80087e-23)
(0.552094 -0.00594925 -8.25279e-24)
(0.558883 -0.00558077 1.06335e-24)
(0.564775 -0.00491004 -1.56285e-23)
(0.571665 -0.00388577 1.01252e-23)
(0.577136 -0.00265793 1.29225e-23)
(0.584192 -0.0013096 8.79826e-24)
(0.589047 0.000193526 1.41215e-24)
(0.596374 0.0014316 -8.92517e-25)
(0.600372 0.00293269 -2.11056e-24)
(0.608179 0.00362008 -6.67896e-25)
(0.611044 0.00490559 -1.1113e-24)
(0.61969 0.00472577 1.52354e-24)
(0.621114 0.00560443 1.15952e-24)
(0.631109 0.00455134 -1.03011e-24)
(0.137215 0.0187227 1.1084e-21)
(0.149501 0.0168547 1.08852e-21)
(0.161787 0.0146977 -2.14259e-22)
(0.174071 0.0123129 -5.82907e-22)
(0.186353 0.0097718 1.3692e-22)
(0.198627 0.00715083 -1.03496e-22)
(0.21089 0.00453215 9.86367e-23)
(0.223133 0.00199451 4.0748e-22)
(0.235349 -0.000363869 -4.70074e-22)
(0.24753 -0.00247101 2.5853e-22)
(0.259663 -0.00426352 3.10871e-22)
(0.271739 -0.00568139 -3.68996e-22)
(0.283745 -0.00667444 1.95333e-22)
(0.295668 -0.00721438 2.51353e-22)
(0.307492 -0.00728362 1.41612e-23)
(0.319199 -0.00688586 1.16046e-22)
(0.330768 -0.00604181 -1.22666e-22)
(0.34217 -0.00479446 3.7705e-23)
(0.353376 -0.00319302 -4.2259e-23)
(0.36435 -0.00131297 1.28026e-22)
(0.375056 0.000776609 -1.54111e-22)
(0.385458 0.00298051 4.92774e-23)
(0.395524 0.00520546 1.73246e-22)
(0.405224 0.00735985 -2.13368e-22)
(0.414541 0.00935575 1.34375e-22)
(0.423463 0.0111096 6.16858e-23)
(0.431996 0.0125514 -6.69495e-23)
(0.440154 0.0136196 -8.40997e-24)
(0.447964 0.0142744 1.85106e-22)
(0.455467 0.0144848 -1.72705e-22)
(0.462702 0.0142495 1.0547e-22)
(0.469727 0.0135721 -5.54194e-23)
(0.476574 0.0124936 -4.43194e-23)
(0.483316 0.0110517 6.02825e-23)
(0.489952 0.0093259 -2.49016e-23)
(0.496572 0.00738181 4.64748e-23)
(0.503115 0.00532499 7.22309e-24)
(0.509717 0.00323775 1.20417e-23)
(0.516222 0.00122921 -2.70869e-23)
(0.522859 -0.000613541 -2.50125e-23)
(0.529326 -0.00220785 -3.12901e-25)
(0.536028 -0.00347104 -2.01735e-23)
(0.542423 -0.00437772 1.39217e-23)
(0.549211 -0.0048537 -3.77746e-23)
(0.555467 -0.00495071 3.50174e-23)
(0.562357 -0.00461141 -4.71497e-23)
(0.568358 -0.00395078 -7.21823e-24)
(0.57536 -0.00296296 1.94741e-23)
(0.580931 -0.00174507 -3.65796e-24)
(0.588059 -0.000442651 7.42291e-24)
(0.592973 0.00105207 -6.07882e-24)
(0.600293 0.00223549 1.01762e-23)
(0.604297 0.00373354 8.34022e-24)
(0.611991 0.00436099 7.74527e-25)
(0.614823 0.00565337 5.18246e-24)
(0.623241 0.00541489 -2.90757e-24)
(0.624627 0.00630902 -2.13859e-24)
(0.634296 0.00521412 5.07165e-25)
(0.151409 0.0219354 3.329e-22)
(0.163245 0.0200298 4.77679e-22)
(0.175081 0.0178364 -3.98959e-24)
(0.186925 0.0154156 1.05997e-21)
(0.198787 0.0128384 -5.57616e-22)
(0.210673 0.0101814 -3.20062e-22)
(0.222587 0.00752616 -1.02491e-22)
(0.234527 0.00495721 -2.7793e-22)
(0.246492 0.00254909 7.4731e-22)
(0.258477 0.000395277 2.55188e-22)
(0.270474 -0.00144536 -3.50598e-23)
(0.282468 -0.00290516 -8.78515e-22)
(0.294445 -0.00394743 2.08151e-22)
(0.306385 -0.00453959 -2.60505e-22)
(0.318265 -0.00466551 -2.55092e-22)
(0.330057 -0.00432924 3.92293e-22)
(0.341729 -0.00355104 -1.94732e-22)
(0.353241 -0.00237631 2.14646e-22)
(0.36455 -0.000855016 -3.24176e-22)
(0.37561 0.000945585 -3.09242e-22)
(0.386375 0.00294715 1.87697e-22)
(0.396799 0.00505381 5.02126e-23)
(0.406841 0.00717884 2.96096e-23)
(0.416464 0.00923069 1.56652e-22)
(0.425648 0.0111238 -1.71791e-22)
(0.434379 0.0127765 -4.12562e-23)
(0.442662 0.0141218 -9.93484e-23)
(0.450514 0.0150998 2.47374e-22)
(0.457968 0.0156735 -1.81349e-22)
(0.465071 0.0158121 1.17352e-22)
(0.471871 0.0155165 5.82614e-23)
(0.478438 0.0147887 6.9236e-23)
(0.484818 0.0136711 -4.33791e-23)
(0.491092 0.0121976 -5.82758e-23)
(0.497276 0.0104496 -7.89988e-24)
(0.50347 0.00848658 -1.46505e-23)
(0.509628 0.00641781 -2.81692e-23)
(0.515891 0.00431764 3.84005e-23)
(0.522112 0.002302 -4.88942e-23)
(0.528523 0.000446941 3.38483e-23)
(0.534825 -0.00115274 3.59119e-23)
(0.541417 -0.00243026 -3.67915e-23)
(0.547755 -0.00334255 -8.35032e-25)
(0.55453 -0.00383767 -8.59812e-24)
(0.560808 -0.00394154 2.98132e-23)
(0.567745 -0.00362903 5.32993e-24)
(0.573806 -0.00297795 4.47971e-23)
(0.580866 -0.00202743 -3.72174e-23)
(0.586492 -0.000822297 -1.77839e-23)
(0.59364 0.000431295 2.70129e-24)
(0.598575 0.00191234 -4.90103e-24)
(0.605837 0.00303731 -9.12103e-24)
(0.609817 0.00452579 2.85646e-24)
(0.617347 0.00509043 -8.23008e-24)
(0.620124 0.00638293 -7.61365e-24)
(0.628262 0.00608535 1.47156e-24)
(0.629601 0.00698934 7.25183e-25)
(0.638884 0.00585491 2.95874e-24)
(0.170158 0.025037 1.29339e-21)
(0.181508 0.0230944 -1.62718e-21)
(0.192853 0.0208673 1.1448e-21)
(0.204213 0.0184156 -8.22334e-23)
(0.215607 0.0158097 -1.48763e-21)
(0.22705 0.0131254 6.97494e-22)
(0.238556 0.0104439 5.87419e-22)
(0.250131 0.00784876 -3.96927e-22)
(0.261778 0.00541701 -1.08524e-22)
(0.273497 0.0032272 -1.64634e-22)
(0.285278 0.00135074 -3.95119e-22)
(0.29711 -0.000149201 2.56782e-22)
(0.308977 -0.00123645 3.65146e-22)
(0.320849 -0.00186799 1.51352e-22)
(0.332698 -0.00204349 3.73973e-22)
(0.344486 -0.00176562 -5.58085e-22)
(0.356172 -0.00105845 6.52322e-22)
(0.367705 5.38601e-05 -4.27242e-22)
(0.379029 0.00149677 1.68451e-22)
(0.390091 0.00321292 -1.78963e-23)
(0.400833 0.00511402 1.38535e-22)
(0.411199 0.0071167 -1.0351e-22)
(0.421143 0.00913311 2.85966e-22)
(0.43062 0.0110729 -4.29824e-22)
(0.439607 0.0128535 2.00663e-22)
(0.448086 0.0143955 2.63745e-22)
(0.456065 0.0156353 4.76183e-23)
(0.463561 0.0165149 -1.75608e-22)
(0.470613 0.0170005 3.02657e-22)
(0.477272 0.017062 -1.12538e-22)
(0.483597 0.0167027 -1.50835e-23)
(0.489665 0.015923 -2.3114e-23)
(0.495537 0.0147669 4.81247e-23)
(0.501303 0.0132645 3.1669e-23)
(0.506995 0.0114988 1.1606e-23)
(0.51272 0.0095234 2.68765e-23)
(0.51845 0.00745053 2.36763e-23)
(0.524326 0.00534636 -8.79141e-23)
(0.530218 0.00333309 5.73819e-23)
(0.536352 0.00147551 1.49059e-23)
(0.542439 -0.000120606 2.83815e-23)
(0.548868 -0.00140383 -7.87049e-23)
(0.555099 -0.0023144 5.23798e-23)
(0.561807 -0.00282277 -2.41094e-24)
(0.568057 -0.00292928 -2.90797e-23)
(0.574986 -0.00264091 1.43684e-23)
(0.581058 -0.00199869 -8.13893e-24)
(0.58812 -0.00108598 -2.32498e-24)
(0.593758 0.000103244 1.99076e-23)
(0.600874 0.00130623 -2.93926e-23)
(0.605791 0.00276863 1.94441e-23)
(0.612946 0.00383195 2.80986e-23)
(0.616872 0.00530452 -2.26671e-23)
(0.624191 0.00580414 1.92714e-23)
(0.626894 0.00709005 -6.85372e-24)
(0.634704 0.00673353 -4.29192e-24)
(0.635985 0.00764168 -6.59909e-24)
(0.644829 0.00647047 -4.00915e-24)
(0.19317 0.0280203 2.24506e-21)
(0.204005 0.0260403 -3.34029e-21)
(0.214827 0.0237812 3.63848e-21)
(0.225665 0.0213027 -2.37562e-21)
(0.236548 0.018674 6.46047e-22)
(0.247502 0.0159704 -5.45811e-22)
(0.258547 0.0132716 1.32368e-21)
(0.269698 0.0106596 -5.48798e-22)
(0.280965 0.00821285 2.9034e-22)
(0.292349 0.00600595 3.15935e-23)
(0.303845 0.00411016 -1.69825e-22)
(0.31544 0.00257822 -6.64848e-22)
(0.327112 0.00145853 8.02514e-22)
(0.338832 0.000788753 8.74366e-23)
(0.350564 0.000568416 -4.36268e-23)
(0.362261 0.000793689 5.41387e-23)
(0.373871 0.00143936 4.64964e-22)
(0.385335 0.00248113 -4.79584e-22)
(0.396592 0.00384455 7.38044e-23)
(0.407571 0.005464 -2.11378e-22)
(0.41821 0.00726236 1.40354e-22)
(0.428444 0.00915496 9.16999e-23)
(0.438218 0.0110551 9.86635e-23)
(0.447484 0.0128747 9.63013e-23)
(0.456214 0.0145343 -3.21566e-22)
(0.464389 0.0159571 2.14857e-23)
(0.472016 0.0170834 1.90207e-22)
(0.479113 0.0178574 4.00514e-23)
(0.485724 0.0182488 -9.75691e-23)
(0.491903 0.0182285 -8.4326e-24)
(0.497721 0.0178022 -1.43131e-22)
(0.50326 0.0169693 -4.61112e-24)
(0.508592 0.0157754 -2.45406e-22)
(0.513818 0.0142467 2.48366e-22)
(0.518985 0.0124678 -1.49266e-22)
(0.524207 0.0104861 -2.66716e-23)
(0.52947 0.00841667 -1.85691e-23)
(0.53492 0.00631714 8.91376e-23)
(0.54044 0.00431541 -5.55931e-24)
(0.546253 0.00246497 3.62884e-23)
(0.552078 0.000881196 1.51984e-23)
(0.558296 -0.000399493 1.31995e-22)
(0.56437 -0.00130096 -5.38765e-23)
(0.570958 -0.00181662 -8.50658e-24)
(0.57713 -0.00192151 -7.53306e-24)
(0.583996 -0.00165439 3.59336e-23)
(0.590031 -0.00102025 2.04563e-23)
(0.597044 -0.000145442 -2.52007e-23)
(0.602649 0.0010266 1.64155e-24)
(0.609682 0.00217616 4.15665e-23)
(0.614545 0.00361534 -2.11153e-23)
(0.621545 0.00461445 -1.12015e-23)
(0.625389 0.00606505 3.62167e-23)
(0.632454 0.00649811 -1.17388e-23)
(0.635064 0.00777083 1.50492e-23)
(0.642503 0.00735615 3.6633e-24)
(0.643717 0.0082627 1.04958e-23)
(0.652076 0.00705787 -9.03993e-25)
(0.220096 0.0308794 -1.94605e-21)
(0.230394 0.0288607 -1.34659e-22)
(0.240666 0.0265704 1.8758e-21)
(0.250952 0.0240679 4.38379e-22)
(0.26129 0.0214214 -1.23678e-21)
(0.271714 0.0187051 8.43432e-22)
(0.282253 0.0159972 -1.29818e-21)
(0.292929 0.0133777 8.00282e-22)
(0.303758 0.010924 -2.11296e-22)
(0.314745 0.00871016 -1.24993e-21)
(0.325887 0.00680363 1.86876e-21)
(0.337171 0.00525846 -3.45998e-22)
(0.348573 0.00412043 -8.79799e-22)
(0.36006 0.00341457 1.10973e-21)
(0.371591 0.00315414 8.98666e-23)
(0.383112 0.00333166 -5.44152e-22)
(0.394561 0.00392402 5.16326e-23)
(0.405873 0.00488456 -5.67674e-23)
(0.416977 0.00616227 -6.06545e-22)
(0.427794 0.00768545 -1.32976e-22)
(0.438253 0.00937776 1.53809e-22)
(0.448281 0.0111548 -4.10239e-22)
(0.457819 0.0129324 2.57984e-22)
(0.466814 0.014625 -2.18304e-23)
(0.475234 0.0161565 -1.76953e-23)
(0.483057 0.017453 -1.44741e-22)
(0.490291 0.018459 1.61202e-23)
(0.496954 0.0191212 5.53925e-23)
(0.503094 0.0194131 1.24038e-22)
(0.508769 0.0193069 1.12216e-22)
(0.514056 0.0188109 -2.94038e-22)
(0.519042 0.0179237 7.95587e-23)
(0.523814 0.0166923 6.34393e-23)
(0.528478 0.0151398 -2.91761e-23)
(0.533096 0.0133518 2.32967e-23)
(0.537787 0.0113697 -8.6168e-23)
(0.542555 0.0093108 1.83463e-22)
(0.547545 0.00722412 -5.36877e-23)
(0.552657 0.00524267 -9.11186e-23)
(0.558109 0.00340832 3.54854e-23)
(0.563631 0.00184594 1.13718e-23)
(0.56959 0.000575381 1.6071e-23)
(0.575461 -0.000309773 2.97216e-23)
(0.58188 -0.000826687 5.41518e-23)
(0.587925 -0.000925739 -3.56834e-23)
(0.594677 -0.000676925 -4.76262e-23)
(0.600628 -4.98092e-05 -5.12924e-23)
(0.60754 0.000787854 4.63972e-23)
(0.613069 0.00194139 -4.28184e-23)
(0.619972 0.0030353 -1.17955e-23)
(0.624745 0.00444706 3.29546e-23)
(0.631547 0.00538008 -1.16436e-23)
(0.635283 0.00680298 -1.21064e-23)
(0.642052 0.00716859 1.44552e-23)
(0.644553 0.00842175 -1.50725e-24)
(0.651582 0.00795025 3.88578e-24)
(0.652724 0.00884946 -2.18235e-24)
(0.660555 0.0076145 -1.67883e-25)
(0.250539 0.03361 3.12193e-21)
(0.260283 0.0315505 -3.24587e-21)
(0.269987 0.0292289 2.06566e-21)
(0.279698 0.0267042 -1.01006e-21)
(0.289463 0.0240437 1.46368e-21)
(0.299324 0.0213199 -4.76112e-22)
(0.309318 0.0186097 -7.15674e-23)
(0.319475 0.0159908 -1.4329e-22)
(0.329816 0.0135389 3.9996e-22)
(0.34035 0.011326 -1.49594e-21)
(0.351075 0.00941734 4.2918e-22)
(0.361981 0.00786582 2.80693e-23)
(0.373041 0.00671387 1.5966e-21)
(0.384219 0.00598462 -2.01429e-21)
(0.39547 0.00569052 4.55707e-22)
(0.406733 0.00582252 -2.57577e-22)
(0.417942 0.00635598 5.87805e-23)
(0.42902 0.00724447 1.45613e-21)
(0.439891 0.00843718 -9.38686e-22)
(0.450469 0.00986289 5.84314e-23)
(0.460676 0.0114459 -4.28739e-22)
(0.470432 0.0131033 -1.81818e-23)
(0.479673 0.0147536 6.05458e-22)
(0.488342 0.0163138 1.30263e-22)
(0.496404 0.0177116 1.46658e-22)
(0.503835 0.0188763 -2.29827e-22)
(0.510643 0.0197565 2.39211e-22)
(0.516845 0.0203019 -1.82361e-23)
(0.522493 0.0204899 -1.17975e-22)
(0.527645 0.0202941 9.70364e-23)
(0.532386 0.0197261 -2.78966e-22)
(0.536808 0.0187835 2.89587e-22)
(0.541008 0.0175154 8.89226e-24)
(0.545096 0.0159412 5.87091e-23)
(0.54915 0.0141478 -1.69e-22)
(0.553293 0.0121705 2.69245e-23)
(0.557544 0.0101287 -3.49925e-23)
(0.562049 0.00806243 1.38957e-22)
(0.566725 0.00610945 -3.10939e-23)
(0.57178 0.00429963 -1.09495e-22)
(0.576962 0.00276707 -1.43827e-22)
(0.582622 0.00151485 2.55362e-23)
(0.588248 0.000652082 4.61724e-23)
(0.59445 0.000139819 -1.67248e-23)
(0.600323 5.07921e-05 -1.08994e-23)
(0.606912 0.000284124 8.15685e-23)
(0.612734 0.000906104 -4.82864e-23)
(0.619496 0.00170747 -2.69717e-24)
(0.62491 0.0028399 6.48082e-23)
(0.631635 0.00387811 -3.15968e-23)
(0.636287 0.00525866 -3.732e-23)
(0.642848 0.00612438 -3.68349e-23)
(0.646453 0.00751427 -1.0856e-24)
(0.652891 0.00781221 -2.48987e-23)
(0.655268 0.00903968 -6.20535e-24)
(0.661854 0.00851325 2.12734e-24)
(0.662918 0.00939946 -6.0529e-24)
(0.670189 0.00813814 -2.38697e-25)
(0.284064 0.0362089 1.70863e-21)
(0.293244 0.0341061 -2.22305e-21)
(0.302367 0.0317523 2.64764e-21)
(0.311487 0.0292063 -1.57217e-21)
(0.320658 0.0265341 5.00159e-22)
(0.329932 0.023807 9.52834e-22)
(0.339351 0.0210999 -2.06732e-21)
(0.348952 0.0184883 5.05956e-22)
(0.358761 0.0160456 1.37101e-22)
(0.368792 0.0138413 -1.24291e-21)
(0.379047 0.0119382 -1.84043e-24)
(0.389513 0.0103868 1.65472e-21)
(0.400165 0.00922716 -8.40602e-22)
(0.410965 0.00848142 -7.08087e-22)
(0.421863 0.00815887 6.07489e-22)
(0.432793 0.00824921 -6.24607e-22)
(0.443684 0.00872672 3.4456e-22)
(0.454454 0.0095461 1.1321e-21)
(0.465018 0.0106543 -9.5676e-23)
(0.475286 0.0119816 -8.94282e-22)
(0.485173 0.0134534 6.38642e-23)
(0.494595 0.0149885 5.63991e-22)
(0.503485 0.0165082 5.74349e-23)
(0.511779 0.0179323 -4.46905e-22)
(0.519443 0.0191923 -2.98939e-22)
(0.526448 0.020221 -1.7705e-22)
(0.532804 0.0209713 -3.89517e-22)
(0.538525 0.021396 2.43594e-22)
(0.543667 0.0214767 3.39529e-23)
(0.548287 0.0211887 -1.41169e-22)
(0.552479 0.0205467 1.684e-22)
(0.556333 0.019548 -2.80543e-22)
(0.559958 0.0182435 3.38591e-22)
(0.563467 0.0166495 -3.10037e-23)
(0.566951 0.0148539 7.47794e-23)
(0.570536 0.0128862 -1.72434e-22)
(0.574258 0.0108672 1.23301e-23)
(0.578261 0.00882834 1.94714e-23)
(0.582477 0.00691127 1.15965e-22)
(0.58711 0.00513385 -1.84338e-23)
(0.591921 0.00363865 9.39308e-23)
(0.597246 0.00241268 5.37658e-23)
(0.602587 0.00157859 -1.27539e-22)
(0.60853 0.00107638 2.04156e-23)
(0.61419 0.00100143 -3.57767e-24)
(0.620569 0.00122317 -2.40132e-23)
(0.626221 0.00184101 -7.16687e-23)
(0.632786 0.00260683 1.37244e-23)
(0.638047 0.00371696 -1.14399e-22)
(0.644553 0.00469931 5.54327e-23)
(0.649052 0.00604529 -1.805e-23)
(0.655337 0.00684322 1.80732e-23)
(0.658789 0.00819521 1.64245e-23)
(0.664865 0.00842592 2.28349e-24)
(0.667107 0.00962192 -1.3718e-23)
(0.673223 0.00904294 -1.84057e-23)
(0.674203 0.0099107 7.77779e-25)
(0.680888 0.00862693 -5.02516e-24)
(0.320216 0.0386743 9.70667e-23)
(0.328826 0.0365252 -2.8076e-21)
(0.337359 0.0341377 4.59841e-22)
(0.345878 0.0315702 1.15708e-21)
(0.354443 0.0288878 8.51576e-22)
(0.36311 0.0261602 -1.78388e-21)
(0.371932 0.0234602 1.19441e-21)
(0.380948 0.020861 -2.86518e-22)
(0.390191 0.0184335 1.24177e-22)
(0.399678 0.0162444 2.73713e-22)
(0.409413 0.0143535 -1.48013e-22)
(0.419387 0.0128089 3.9923e-22)
(0.429574 0.011648 1.17533e-21)
(0.439932 0.010891 -6.71235e-22)
(0.45041 0.0105448 -9.41167e-22)
(0.460939 0.0105977 5.6386e-22)
(0.471443 0.0110226 2.84449e-22)
(0.481834 0.0117744 6.05436e-22)
(0.492024 0.0127991 2.47282e-23)
(0.501917 0.014028 -3.39206e-22)
(0.511424 0.0153879 -2.00207e-22)
(0.520457 0.0167995 -8.45098e-22)
(0.528946 0.0181868 1.05142e-21)
(0.536824 0.0194727 1.59643e-22)
(0.544055 0.0205925 -2.40205e-23)
(0.550608 0.0214827 -1.34141e-22)
(0.556492 0.0221003 -1.39371e-22)
(0.56172 0.0224018 -1.38115e-22)
(0.56635 0.0223727 -3.74669e-22)
(0.570438 0.0219905 1.49073e-22)
(0.574083 0.0212732 2.75305e-22)
(0.577374 0.0202178 -2.28541e-22)
(0.580431 0.0188772 1.99792e-23)
(0.583366 0.0172649 -1.18228e-22)
(0.586285 0.01547 1.00291e-22)
(0.589312 0.0135157 -1.74963e-23)
(0.592501 0.0115247 7.17151e-23)
(0.595992 0.00951926 -9.55008e-23)
(0.599735 0.0076447 9.79403e-23)
(0.603924 0.00590681 -2.22517e-22)
(0.60834 0.00445582 7.26001e-23)
(0.613299 0.00326264 5.15904e-23)
(0.618324 0.00246374 -2.11181e-23)
(0.62397 0.00197687 6.90407e-23)
(0.629379 0.00191989 5.09629e-23)
(0.635505 0.00213389 1.07103e-22)
(0.640949 0.00274825 1.11586e-22)
(0.647276 0.00348007 -2.89339e-23)
(0.65235 0.00456711 3.79208e-23)
(0.658597 0.00549395 3.36166e-23)
(0.662916 0.00680251 -1.35386e-23)
(0.668892 0.00753282 7.48992e-23)
(0.672173 0.00884254 -6.70874e-25)
(0.67786 0.00900707 1.45621e-23)
(0.679956 0.0101662 -1.25297e-24)
(0.685582 0.0095375 1.18917e-24)
(0.686477 0.0103816 3.96563e-24)
(0.692555 0.00907942 1.23456e-24)
(0.358525 0.0410051 -7.73191e-21)
(0.36656 0.0388065 4.76834e-21)
(0.374502 0.0363833 4.35282e-22)
(0.382415 0.0337935 -8.93643e-22)
(0.390366 0.0311013 1.00528e-22)
(0.398417 0.0283749 1.02322e-21)
(0.406624 0.0256848 -5.03369e-22)
(0.415035 0.0231018 -1.53199e-21)
(0.423684 0.020694 1.47607e-21)
(0.432595 0.0185253 -3.57353e-22)
(0.441772 0.016652 6.53354e-22)
(0.451208 0.0151198 -1.03163e-21)
(0.460878 0.0139631 4.06095e-22)
(0.47074 0.0131997 3.26642e-22)
(0.48074 0.0128343 -7.66051e-22)
(0.490807 0.0128535 1.2723e-21)
(0.500861 0.013229 -1.59018e-21)
(0.510812 0.0139154 3.92886e-22)
(0.520567 0.0148583 7.47508e-22)
(0.530026 0.0159899 -4.30437e-22)
(0.5391 0.0172385 -2.62204e-22)
(0.547696 0.0185266 8.04256e-22)
(0.555741 0.0197813 -4.03419e-22)
(0.563167 0.0209284 -4.19102e-22)
(0.569937 0.0219072 5.12332e-22)
(0.576017 0.0226577 4.7492e-22)
(0.581417 0.0231416 1.28192e-22)
(0.586147 0.0233185 -1.86671e-22)
(0.590266 0.0231784 1.30529e-22)
(0.593829 0.0227009 4.68649e-22)
(0.596937 0.0219072 -3.93015e-22)
(0.59968 0.0207949 2.36369e-22)
(0.602183 0.0194186 2.0297e-22)
(0.604559 0.0177893 -3.00759e-22)
(0.606924 0.015997 1.05271e-22)
(0.609403 0.0140596 -9.38686e-23)
(0.612062 0.0121006 2.31767e-23)
(0.61504 0.0101338 1.50499e-22)
(0.618304 0.00830744 -1.98548e-22)
(0.622037 0.00661529 3.26949e-23)
(0.626039 0.00521463 8.50194e-23)
(0.630608 0.00406025 -7.95762e-23)
(0.63529 0.00330178 4.05053e-24)
(0.640606 0.00283548 -1.76931e-23)
(0.645731 0.00280011 -1.03044e-22)
(0.651568 0.00300929 4.84667e-23)
(0.65677 0.00362202 -5.09831e-24)
(0.662821 0.00432187 5.19097e-23)
(0.667676 0.00538525 -1.40469e-23)
(0.673631 0.00625752 -4.16524e-23)
(0.677746 0.00752627 -1.34009e-23)
(0.683384 0.0081898 -1.08149e-22)
(0.686477 0.00945339 -4.51862e-23)
(0.691755 0.00955342 1.94882e-23)
(0.693698 0.0106708 3.63323e-23)
(0.698819 0.00999553 3.7076e-24)
(0.699626 0.0108111 -3.75009e-24)
(0.705088 0.00949455 7.55627e-24)
(0.398518 0.0432004 -2.27183e-21)
(0.40598 0.0409495 2.91477e-21)
(0.413329 0.0384884 1.27042e-22)
(0.420637 0.0358751 -3.02499e-21)
(0.427972 0.0331729 -5.848e-22)
(0.435402 0.0304483 -1.57137e-21)
(0.442987 0.0277697 -6.90308e-22)
(0.450778 0.0252054 3.10077e-21)
(0.458815 0.0228205 -4.07486e-22)
(0.467124 0.0206758 -2.52825e-22)
(0.475713 0.0188245 -1.00581e-21)
(0.484575 0.017309 1.42802e-21)
(0.493687 0.0161608 -1.70184e-21)
(0.503006 0.0153953 3.07732e-22)
(0.512478 0.0150146 7.634e-23)
(0.52203 0.0150037 -1.68848e-22)
(0.531581 0.015333 1.33114e-22)
(0.541036 0.0159567 -7.93641e-22)
(0.550303 0.0168201 9.51342e-22)
(0.55928 0.0178563 -4.80192e-22)
(0.567873 0.0189953 -1.69124e-22)
(0.575988 0.0201614 -1.25728e-22)
(0.583554 0.0212847 1.11043e-22)
(0.590499 0.022294 5.07719e-22)
(0.596786 0.0231325 1.07642e-22)
(0.602379 0.0237438 -5.40855e-22)
(0.607288 0.0240942 -3.84278e-22)
(0.61152 0.0241466 2.59309e-22)
(0.615136 0.0238952 -2.04304e-22)
(0.618187 0.0233221 -9.4404e-23)
(0.620777 0.0224519 6.7382e-23)
(0.622992 0.0212825 9.56106e-23)
(0.624964 0.0198708 -3.66578e-22)
(0.626802 0.0182254 -1.30721e-23)
(0.628634 0.0164375 6.70585e-23)
(0.630581 0.0145194 7.80476e-23)
(0.632724 0.0125958 -2.23863e-22)
(0.635195 0.0106717 1.75666e-22)
(0.637981 0.00889827 -2.60653e-23)
(0.641252 0.00725714 -1.0014e-22)
(0.644831 0.00591201 3.27446e-23)
(0.648993 0.00480185 -4.52015e-23)
(0.65331 0.00408837 -2.78559e-24)
(0.65827 0.00364728 -1.35253e-23)
(0.663083 0.00363678 -8.23163e-23)
(0.668599 0.00384443 9.49847e-23)
(0.673528 0.00445723 -2.0653e-23)
(0.67927 0.00512731 -2.19707e-22)
(0.68388 0.00616674 1.80949e-22)
(0.689512 0.0069859 1.5047e-23)
(0.693402 0.00821297 1.50896e-23)
(0.698678 0.00881119 -6.12429e-24)
(0.701571 0.0100254 3.49711e-23)
(0.706424 0.0100631 2.13211e-23)
(0.708209 0.0111343 -1.35319e-23)
(0.712816 0.010416 9.86061e-24)
(0.713535 0.0111986 1.2177e-23)
(0.718377 0.00987166 -4.80606e-24)
(0.439732 0.0452601 -5.4765e-21)
(0.446621 0.0429542 7.44254e-21)