/*--------------------------------*- C++ -*----------------------------------*\
  =========                 |
  \\      /  F ield         | OpenFOAM: The Open Source CFD Toolbox
   \\    /   O peration     | Website:  https://openfoam.org
    \\  /    A nd           | Version:  7
     \\/     M anipulation  |
\*---------------------------------------------------------------------------*/
FoamFile
{
    version     2.0;
    format      ascii;
    class       volScalarField;
    location    "20";
    object      p;
}
// * * * * * * * * * * * * * * * * * * * * * * * * * * * * * * * * * * * * * //

dimensions      [0 2 -2 0 0 0 0];

internalField   nonuniform List<scalar> 
1987
(
-0.272329
-0.273909
-0.274805
-0.275533
-0.276165
-0.276718
-0.27723
-0.277723
-0.278208
-0.278692
-0.279173
-0.279647
-0.280106
-0.28054
-0.280938
-0.281288
-0.281577
-0.281793
-0.281926
-0.281966
-0.281909
-0.281762
-0.281538
-0.281252
-0.280972
-0.272442
-0.274009
-0.274899
-0.275622
-0.276249
-0.276799
-0.277308
-0.277798
-0.278281
-0.278762
-0.279242
-0.279714
-0.280172
-0.280605
-0.281002
-0.281351
-0.281639
-0.281854
-0.281985
-0.282021
-0.28196
-0.281804
-0.28157
-0.281267
-0.280963
-0.272667
-0.274209
-0.275086
-0.275798
-0.276417
-0.276959
-0.277462
-0.277946
-0.278424
-0.278902
-0.279377
-0.279847
-0.280301
-0.280732
-0.281127
-0.281475
-0.281761
-0.281974
-0.282101
-0.282131
-0.282059
-0.281887
-0.281633
-0.281295
-0.280943
-0.273001
-0.274507
-0.275363
-0.276061
-0.276666
-0.277197
-0.27769
-0.278165
-0.278636
-0.279107
-0.279577
-0.280041
-0.280492
-0.280919
-0.281311
-0.281656
-0.28194
-0.282149
-0.28227
-0.282291
-0.282204
-0.282009
-0.281725
-0.281336
-0.280907
-0.27344
-0.274898
-0.275729
-0.276406
-0.276993
-0.277509
-0.277989
-0.278453
-0.278913
-0.279375
-0.279837
-0.280294
-0.280739
-0.281161
-0.281549
-0.28189
-0.28217
-0.282374
-0.282488
-0.282498
-0.28239
-0.282165
-0.281841
-0.281389
-0.280847
-0.273978
-0.275378
-0.276178
-0.276829
-0.277395
-0.277892
-0.278355
-0.278804
-0.279251
-0.2797
-0.280152
-0.2806
-0.281037
-0.281452
-0.281834
-0.28217
-0.282445
-0.282643
-0.282748
-0.282744
-0.282613
-0.282351
-0.281979
-0.281453
-0.280752
-0.274609
-0.275942
-0.276705
-0.277327
-0.277866
-0.27834
-0.278782
-0.279213
-0.279643
-0.280078
-0.280515
-0.280952
-0.281378
-0.281785
-0.282159
-0.282488
-0.282756
-0.282947
-0.283042
-0.283022
-0.282866
-0.28256
-0.282131
-0.28153
-0.280608
-0.275326
-0.276584
-0.277306
-0.277893
-0.278402
-0.278849
-0.279266
-0.279674
-0.280084
-0.280499
-0.280921
-0.281342
-0.281755
-0.28215
-0.282514
-0.282834
-0.283094
-0.283276
-0.28336
-0.283322
-0.283139
-0.282787
-0.28229
-0.281621
-0.280396
-0.276122
-0.277298
-0.277974
-0.278522
-0.278996
-0.279412
-0.2798
-0.280181
-0.280566
-0.280959
-0.281359
-0.281761
-0.282158
-0.282538
-0.28289
-0.283198
-0.283448
-0.283619
-0.28369
-0.283635
-0.283424
-0.283024
-0.282447
-0.281737
-0.280078
-0.276988
-0.278077
-0.278703
-0.279209
-0.279643
-0.280023
-0.280378
-0.280727
-0.281082
-0.281448
-0.281823
-0.282202
-0.282578
-0.28294
-0.283275
-0.28357
-0.283806
-0.283965
-0.284022
-0.283948
-0.28371
-0.283261
-0.282593
-0.281915
-0.279584
-0.277916
-0.278915
-0.279487
-0.279946
-0.280337
-0.280676
-0.280992
-0.281304
-0.281625
-0.281958
-0.282303
-0.282655
-0.283005
-0.283345
-0.28366
-0.283937
-0.284157
-0.284301
-0.284341
-0.284248
-0.283982
-0.283491
-0.282717
-0.282196
-0.278955
-0.278897
-0.279804
-0.28032
-0.280729
-0.281072
-0.281365
-0.281637
-0.281907
-0.282186
-0.282481
-0.28279
-0.283109
-0.28343
-0.283742
-0.284033
-0.284287
-0.284488
-0.284613
-0.284635
-0.284521
-0.284226
-0.283705
-0.282802
-0.282182
-0.278624
-0.279925
-0.280739
-0.281197
-0.281552
-0.281842
-0.282084
-0.282306
-0.282527
-0.28276
-0.28301
-0.283277
-0.283557
-0.283842
-0.284121
-0.284382
-0.28461
-0.284787
-0.284889
-0.284889
-0.284752
-0.284425
-0.283876
-0.282862
-0.28223
-0.278095
-0.280992
-0.281714
-0.282111
-0.282409
-0.282642
-0.282827
-0.282993
-0.283159
-0.283338
-0.283537
-0.283755
-0.28399
-0.284232
-0.284473
-0.284699
-0.284895
-0.285042
-0.285117
-0.285091
-0.284927
-0.284563
-0.284
-0.282834
-0.282338
-0.277385
-0.282092
-0.282723
-0.28306
-0.283297
-0.283468
-0.283591
-0.283693
-0.283797
-0.283915
-0.284054
-0.284217
-0.284399
-0.284593
-0.284789
-0.284974
-0.285132
-0.285244
-0.285286
-0.285228
-0.285034
-0.284623
-0.284063
-0.282686
-0.282458
-0.276527
-0.283221
-0.283765
-0.284038
-0.284212
-0.284316
-0.28437
-0.284402
-0.284436
-0.284485
-0.284558
-0.284657
-0.28478
-0.284918
-0.285062
-0.285199
-0.285313
-0.285384
-0.285387
-0.28529
-0.285061
-0.284589
-0.284052
-0.282396
-0.282561
-0.275531
-0.284374
-0.284835
-0.285045
-0.285152
-0.285183
-0.285162
-0.285117
-0.285072
-0.285045
-0.285043
-0.285071
-0.285126
-0.285201
-0.285287
-0.285369
-0.285433
-0.285456
-0.285414
-0.285271
-0.285002
-0.284447
-0.283955
-0.281945
-0.28261
-0.274417
-0.28555
-0.285932
-0.286078
-0.286114
-0.286068
-0.285965
-0.285835
-0.285704
-0.285591
-0.285506
-0.285455
-0.285434
-0.285439
-0.285459
-0.285481
-0.285487
-0.285456
-0.285362
-0.285164
-0.28485
-0.284191
-0.283761
-0.281327
-0.282554
-0.273224
-0.286749
-0.287057
-0.287138
-0.287099
-0.286971
-0.286778
-0.286555
-0.28633
-0.286122
-0.285946
-0.285807
-0.285704
-0.285631
-0.285579
-0.285533
-0.285476
-0.285384
-0.285231
-0.284968
-0.284603
-0.283816
-0.283455
-0.280553
-0.282324
-0.272008
-0.287972
-0.288211
-0.288225
-0.288109
-0.287891
-0.287602
-0.287278
-0.28695
-0.28664
-0.286364
-0.286128
-0.285935
-0.285778
-0.285646
-0.285527
-0.2854
-0.285241
-0.285021
-0.284683
-0.284258
-0.283323
-0.283016
-0.279649
-0.281844
-0.270821
-0.289224
-0.289398
-0.289344
-0.289145
-0.288832
-0.288439
-0.288006
-0.287566
-0.287145
-0.28676
-0.286422
-0.28613
-0.285882
-0.285665
-0.285466
-0.285263
-0.28503
-0.284734
-0.284311
-0.283812
-0.282716
-0.282416
-0.278643
-0.281037
-0.269694
-0.29051
-0.290622
-0.290498
-0.290211
-0.289797
-0.289293
-0.288742
-0.288181
-0.287641
-0.28714
-0.286691
-0.286295
-0.285949
-0.285642
-0.285357
-0.285071
-0.284755
-0.284375
-0.283852
-0.283258
-0.281997
-0.281622
-0.277559
-0.279848
-0.26861
-0.291837
-0.29189
-0.291693
-0.291313
-0.29079
-0.290167
-0.28949
-0.288801
-0.288134
-0.28751
-0.286943
-0.286437
-0.285987
-0.285583
-0.285206
-0.284831
-0.284423
-0.283945
-0.283308
-0.282588
-0.281162
-0.280606
-0.276396
-0.27826
-0.267507
-0.293216
-0.293211
-0.292936
-0.292458
-0.291819
-0.291068
-0.290258
-0.289433
-0.288631
-0.287877
-0.287186
-0.286564
-0.286005
-0.285499
-0.285023
-0.28455
-0.284039
-0.283446
-0.282676
-0.281792
-0.2802
-0.279349
-0.275123
-0.276294
-0.266292
-0.294658
-0.294593
-0.294236
-0.293652
-0.29289
-0.292004
-0.291052
-0.290084
-0.289141
-0.28825
-0.28743
-0.286686
-0.286014
-0.285399
-0.284818
-0.284235
-0.283605
-0.282876
-0.281948
-0.280856
-0.279088
-0.277842
-0.27369
-0.274
-0.264878
-0.296177
-0.296048
-0.295602
-0.294906
-0.294012
-0.292983
-0.291882
-0.290764
-0.289674
-0.288642
-0.287688
-0.286817
-0.286025
-0.285295
-0.284597
-0.283892
-0.283124
-0.28223
-0.281112
-0.279767
-0.277797
-0.276083
-0.27204
-0.27143
-0.263198
-0.297787
-0.297587
-0.297047
-0.296229
-0.295196
-0.294016
-0.292759
-0.291485
-0.290241
-0.289063
-0.28797
-0.286968
-0.286051
-0.285197
-0.28437
-0.283523
-0.282591
-0.281499
-0.280152
-0.278507
-0.276297
-0.274072
-0.270125
-0.268608
-0.261203
-0.299504
-0.299224
-0.298581
-0.297633
-0.296451
-0.295113
-0.293693
-0.292256
-0.290855
-0.289526
-0.28829
-0.287153
-0.286102
-0.285112
-0.284141
-0.283127
-0.282
-0.28067
-0.279048
-0.277061
-0.27456
-0.271808
-0.267911
-0.265508
-0.258864
-0.301346
-0.300974
-0.300217
-0.299129
-0.29779
-0.296286
-0.294696
-0.293092
-0.291529
-0.290046
-0.288662
-0.287382
-0.286189
-0.285049
-0.28391
-0.282701
-0.281339
-0.279729
-0.277783
-0.275414
-0.272574
-0.269303
-0.26538
-0.262046
-0.256213
-0.30333
-0.30285
-0.301969
-0.300731
-0.299225
-0.297547
-0.295782
-0.294006
-0.292277
-0.290634
-0.289098
-0.287667
-0.286318
-0.285009
-0.283675
-0.282235
-0.280596
-0.278657
-0.276341
-0.273561
-0.270337
-0.266586
-0.262535
-0.258225
-0.253397
-0.305473
-0.304869
-0.30385
-0.30245
-0.300769
-0.298909
-0.296962
-0.29501
-0.29311
-0.291305
-0.289609
-0.288016
-0.286496
-0.284993
-0.283431
-0.281717
-0.279753
-0.277439
-0.274713
-0.271498
-0.267862
-0.263688
-0.259397
-0.254379
-0.25037
-0.307792
-0.307045
-0.305875
-0.304301
-0.302434
-0.300384
-0.298251
-0.296117
-0.294044
-0.292069
-0.290205
-0.288437
-0.286723
-0.284995
-0.283165
-0.281132
-0.278795
-0.276064
-0.272893
-0.269232
-0.265176
-0.260626
-0.256006
-0.250721
-0.246358
-0.310307
-0.309392
-0.308056
-0.306297
-0.304234
-0.301987
-0.299662
-0.297342
-0.295089
-0.292938
-0.290895
-0.288932
-0.286997
-0.285008
-0.282865
-0.280463
-0.277707
-0.274521
-0.270885
-0.266775
-0.262311
-0.257413
-0.25249
-0.246984
-0.242259
-0.313034
-0.311926
-0.310408
-0.308451
-0.306181
-0.303731
-0.301207
-0.298696
-0.296258
-0.293922
-0.291682
-0.289503
-0.287313
-0.285019
-0.282515
-0.279695
-0.276478
-0.272809
-0.268697
-0.264147
-0.259294
-0.25408
-0.248883
-0.243204
-0.238252
-0.315988
-0.314661
-0.312945
-0.310776
-0.30829
-0.305627
-0.302899
-0.300192
-0.297561
-0.295026
-0.292571
-0.290143
-0.287659
-0.285013
-0.282096
-0.278812
-0.275098
-0.27093
-0.266342
-0.261368
-0.256152
-0.250654
-0.245218
-0.239396
-0.234268
-0.319185
-0.317611
-0.31568
-0.313286
-0.310572
-0.30769
-0.304752
-0.301841
-0.299006
-0.296256
-0.293559
-0.290847
-0.288022
-0.284972
-0.281591
-0.277801
-0.273565
-0.268889
-0.263835
-0.258461
-0.25291
-0.247155
-0.241511
-0.235561
-0.23031
-0.322638
-0.320788
-0.318624
-0.315992
-0.313042
-0.309933
-0.306777
-0.303653
-0.3006
-0.297613
-0.294642
-0.291602
-0.288385
-0.284877
-0.280984
-0.276653
-0.271877
-0.266696
-0.261193
-0.255443
-0.249585
-0.243599
-0.23777
-0.231704
-0.226351
-0.326361
-0.324204
-0.321791
-0.318908
-0.315711
-0.312366
-0.308985
-0.305637
-0.302348
-0.299095
-0.29581
-0.292393
-0.288727
-0.284707
-0.28026
-0.275361
-0.270039
-0.264362
-0.258432
-0.252331
-0.246191
-0.239994
-0.233997
-0.227824
-0.222379
-0.330363
-0.327871
-0.325192
-0.322044
-0.318591
-0.315003
-0.311386
-0.307798
-0.30425
-0.300696
-0.29705
-0.293199
-0.289027
-0.284444
-0.279405
-0.273922
-0.268055
-0.261899
-0.255563
-0.249137
-0.242737
-0.236346
-0.230193
-0.223918
-0.334655
-0.331797
-0.328836
-0.325413
-0.321693
-0.317853
-0.313988
-0.310142
-0.306303
-0.302405
-0.298344
-0.293999
-0.289262
-0.284069
-0.27841
-0.272334
-0.265932
-0.259315
-0.252598
-0.245868
-0.239225
-0.232654
-0.226353
-0.219981
-0.339245
-0.335991
-0.332733
-0.329024
-0.325029
-0.320926
-0.316798
-0.312668
-0.308501
-0.304208
-0.29967
-0.294766
-0.28941
-0.283566
-0.277268
-0.270598
-0.263675
-0.256618
-0.249543
-0.242528
-0.235659
-0.228917
-0.222474
-0.344136
-0.340458
-0.33689
-0.332885
-0.328606
-0.324229
-0.319818
-0.315372
-0.310831
-0.306083
-0.301001
-0.295476
-0.289446
-0.282921
-0.275972
-0.268717
-0.261289
-0.253815
-0.246401
-0.239118
-0.232034
-0.225129
-0.21855
-0.349331
-0.345205
-0.341314
-0.337004
-0.332431
-0.327764
-0.323045
-0.318245
-0.313274
-0.308005
-0.30231
-0.296099
-0.289351
-0.28212
-0.274518
-0.266689
-0.258778
-0.250907
-0.243173
-0.235636
-0.228347
-0.221287
-0.214574
-0.354831
-0.35023
-0.346007
-0.341384
-0.336507
-0.331533
-0.326474
-0.321271
-0.315808
-0.309945
-0.303563
-0.296608
-0.289105
-0.281154
-0.272904
-0.264517
-0.256142
-0.247895
-0.239857
-0.232078
-0.224593
-0.217382
-0.21054
-0.36063
-0.355534
-0.35097
-0.346028
-0.340834
-0.335529
-0.330092
-0.32443
-0.318402
-0.311867
-0.304729
-0.296977
-0.288689
-0.280012
-0.271124
-0.262199
-0.253381
-0.244775
-0.236448
-0.228437
-0.220764
-0.213408
-0.366722
-0.361112
-0.356199
-0.350931
-0.345406
-0.339743
-0.33388
-0.327692
-0.32102
-0.313734
-0.305773
-0.29718
-0.288088
-0.278687
-0.269176
-0.259733
-0.250491
-0.241542
-0.23294
-0.224706
-0.216853
-0.209358
-0.373093
-0.366952
-0.361689
-0.356087
-0.350214
-0.344156
-0.337812
-0.331022
-0.323624
-0.315506
-0.306661
-0.297192
-0.287287
-0.27717
-0.267054
-0.257112
-0.247467
-0.238191
-0.229324
-0.220878
-0.212852
-0.205223
-0.379724
-0.373043
-0.367425
-0.361483
-0.355239
-0.348744
-0.341853
-0.334381
-0.326168
-0.317143
-0.307361
-0.29699
-0.28627
-0.275451
-0.264751
-0.254332
-0.2443
-0.234713
-0.225593
-0.216943
-0.208752
-0.200996
-0.386594
-0.379364
-0.373391
-0.367099
-0.360457
-0.353475
-0.345963
-0.337719
-0.328604
-0.318603
-0.30784
-0.296553
-0.285025
-0.273522
-0.262259
-0.251385
-0.240984
-0.231099
-0.221738
-0.212893
-0.204546
-0.39367
-0.385889
-0.379563
-0.372909
-0.365836
-0.358308
-0.350093
-0.340985
-0.330884
-0.319843
-0.308069
-0.295861
-0.283536
-0.271372
-0.25957
-0.248259
-0.237507
-0.227338
-0.217747
-0.208718
-0.200224
-0.400918
-0.392588
-0.385909
-0.37888
-0.371337
-0.363194
-0.354188
-0.344123
-0.332956
-0.320824
-0.308017
-0.294892
-0.281791
-0.268989
-0.256671
-0.244946
-0.233859
-0.22342
-0.213612
-0.204409
-0.195778
-0.408293
-0.399421
-0.392392
-0.38497
-0.37691
-0.368078
-0.358188
-0.347074
-0.334769
-0.321507
-0.307658
-0.293628
-0.279774
-0.26636
-0.253552
-0.241432
-0.230029
-0.219334
-0.209322
-0.199957
-0.1912
-0.415745
-0.406344
-0.398966
-0.39113
-0.3825
-0.372896
-0.362026
-0.349776
-0.336273
-0.321853
-0.306964
-0.29205
-0.277471
-0.263473
-0.250198
-0.237706
-0.226003
-0.215069
-0.204867
-0.195352
-0.186482
-0.423215
-0.413303
-0.405579
-0.397301
-0.388041
-0.377579
-0.365635
-0.352168
-0.337418
-0.321827
-0.30591
-0.290138
-0.274864
-0.260313
-0.246598
-0.233754
-0.221771
-0.210614
-0.200236
-0.190587
-0.181616
-0.430641
-0.420239
-0.412169
-0.403418
-0.393462
-0.382052
-0.368942
-0.35419
-0.338158
-0.321393
-0.30447
-0.287872
-0.271939
-0.256865
-0.242736
-0.229564
-0.21732
-0.205958
-0.195421
-0.185652
-0.176595
-0.437949
-0.427085
-0.418668
-0.409409
-0.398685
-0.386236
-0.371875
-0.355781
-0.338447
-0.32052
-0.302621
-0.285235
-0.268678
-0.253114
-0.238598
-0.225121
-0.212639
-0.20109
-0.190412
-0.18054
-0.171412
-0.445062
-0.433768
-0.425001
-0.415192
-0.403626
-0.39005
-0.374363
-0.356883
-0.338243
-0.319176
-0.300338
-0.282205
-0.265064
-0.249043
-0.23417
-0.220414
-0.207715
-0.196001
-0.1852
-0.175242
-0.16606
-0.451896
-0.440207
-0.431086
-0.420683
-0.408199
-0.393412
-0.376334
-0.357442
-0.337503
-0.317331
-0.297599
-0.278765
-0.261079
-0.244637
-0.229438
-0.21543
-0.202537
-0.19068
-0.179777
-0.169752
-0.458363
-0.446318
-0.436835
-0.425791
-0.412313
-0.396238
-0.37772
-0.357404
-0.33619
-0.314956
-0.294381
-0.274894
-0.256708
-0.239882
-0.224388
-0.210155
-0.197096
-0.185118
-0.174135
-0.164063
-0.46437
-0.45201
-0.442158
-0.430421
-0.415877
-0.398448
-0.378456
-0.356721
-0.334269
-0.312026
-0.290663
-0.270575
-0.251933
-0.234761
-0.219007
-0.20458
-0.19138
-0.179308
-0.168267
-0.15817
-0.469822
-0.457191
-0.446958
-0.434479
-0.418801
-0.399964
-0.378479
-0.355348
-0.331706
-0.308514
-0.286425
-0.26579
-0.246738
-0.229262
-0.213282
-0.198692
-0.185382
-0.17324
-0.162167
-0.152066
-0.47462
-0.461764
-0.451137
-0.437866
-0.420994
-0.40071
-0.377733
-0.353242
-0.328471
-0.304398
-0.281646
-0.260522
-0.24111
-0.22337
-0.207202
-0.192484
-0.179092
-0.16691
-0.155828
-0.145748
-0.478666
-0.465631
-0.454598
-0.440487
-0.422371
-0.400617
-0.376164
-0.350366
-0.324536
-0.299656
-0.276309
-0.254754
-0.235033
-0.217074
-0.200757
-0.185945
-0.172504
-0.16031
-0.149247
-0.139212
-0.481862
-0.468695
-0.457242
-0.442249
-0.42285
-0.399619
-0.373725
-0.346685
-0.319877
-0.294268
-0.270398
-0.248472
-0.228494
-0.210363
-0.193938
-0.179068
-0.165612
-0.153436
-0.142419
-0.132454
-0.123438
-0.484112
-0.47086
-0.458974
-0.443061
-0.422354
-0.397656
-0.370374
-0.342171
-0.31447
-0.288216
-0.263896
-0.241664
-0.221484
-0.203228
-0.186736
-0.171848
-0.15841
-0.146284
-0.135343
-0.125473
-0.116568
-0.485321
-0.472031
-0.4597
-0.442839
-0.420813
-0.394677
-0.366072
-0.336796
-0.308297
-0.281486
-0.256791
-0.234318
-0.213992
-0.19566
-0.179147
-0.164279
-0.150896
-0.138852
-0.128015
-0.118267
-0.109498
-0.485401
-0.47212
-0.459334
-0.441504
-0.418162
-0.390635
-0.36079
-0.330539
-0.301343
-0.274064
-0.249073
-0.226425
-0.206011
-0.187654
-0.171164
-0.156358
-0.143067
-0.131138
-0.120436
-0.110837
-0.102227
-0.484268
-0.47104
-0.457792
-0.438983
-0.414347
-0.385491
-0.354501
-0.323384
-0.293593
-0.265939
-0.240732
-0.217978
-0.197535
-0.179206
-0.162786
-0.148083
-0.134921
-0.123142
-0.481843
-0.468713
-0.455001
-0.435214
-0.40932
-0.379213
-0.347185
-0.315316
-0.28504
-0.257106
-0.231763
-0.208972
-0.18856
-0.170312
-0.15401
-0.478057
-0.465068
-0.450894
-0.430141
-0.403042
-0.371777
-0.338828
-0.306328
-0.275676
-0.247558
-0.222162
-0.199404
-0.472849
-0.460042
-0.445413
-0.423719
-0.395482
-0.363165
-0.32942
-0.296414
-0.265501
-0.237296
-0.466165
-0.45358
-0.438509
-0.415912
-0.386618
-0.353368
-0.31896
-0.285576
-0.457962
-0.445638
-0.430144
-0.406694
-0.376439
-0.342383
-0.448207
-0.436182
-0.420292
-0.396049
-0.364939
-0.436879
-0.425189
-0.408935
-0.423964
-0.272329
-0.273909
-0.274805
-0.275533
-0.276165
-0.276718
-0.27723
-0.277723
-0.280841
-0.280529
-0.28025
-0.279931
-0.279604
-0.279271
-0.278942
-0.280892
-0.28056
-0.280279
-0.279957
-0.279627
-0.279292
-0.278959
-0.280992
-0.280619
-0.280336
-0.280007
-0.279671
-0.27933
-0.278993
-0.281137
-0.280704
-0.280416
-0.280079
-0.279734
-0.279385
-0.279041
-0.278708
-0.281323
-0.28081
-0.280515
-0.280167
-0.279811
-0.279452
-0.279099
-0.278758
-0.281545
-0.280931
-0.280627
-0.280268
-0.279898
-0.279528
-0.279164
-0.278814
-0.281799
-0.281061
-0.280746
-0.280375
-0.27999
-0.279607
-0.279231
-0.27887
-0.282088
-0.281192
-0.280864
-0.280482
-0.280082
-0.279685
-0.279296
-0.278923
-0.282434
-0.281315
-0.280974
-0.280584
-0.280167
-0.279756
-0.279354
-0.278969
-0.282866
-0.281417
-0.281069
-0.280673
-0.280241
-0.279815
-0.2794
-0.279003
-0.283222
-0.281555
-0.281142
-0.280744
-0.280297
-0.279857
-0.27943
-0.279021
-0.283389
-0.281763
-0.281188
-0.280787
-0.280331
-0.279877
-0.279438
-0.279019
-0.283568
-0.281964
-0.281202
-0.280796
-0.280335
-0.279867
-0.279418
-0.278989
-0.283736
-0.282154
-0.28118
-0.280762
-0.280301
-0.27982
-0.279361
-0.278926
-0.278517
-0.283843
-0.282332
-0.281117
-0.280675
-0.280219
-0.279727
-0.27926
-0.27882
-0.278406
-0.283839
-0.28248
-0.281004
-0.280522
-0.280077
-0.279576
-0.279103
-0.27866
-0.278243
-0.283668
-0.28256
-0.280827
-0.280288
-0.279858
-0.279353
-0.278874
-0.278432
-0.278015
-0.283268
-0.282516
-0.280561
-0.279954
-0.279543
-0.279039
-0.278558
-0.278119
-0.277706
-0.282586
-0.282272
-0.280171
-0.279499
-0.279107
-0.27861
-0.278133
-0.277702
-0.277297
-0.276919
-0.281587
-0.281742
-0.279608
-0.278894
-0.278523
-0.278042
-0.277575
-0.277158
-0.276767
-0.2764
-0.280249
-0.280841
-0.278812
-0.278103
-0.277758
-0.277303
-0.27686
-0.276464
-0.276094
-0.275745
-0.278565
-0.279504
-0.277724
-0.277085
-0.27678
-0.276366
-0.275959
-0.275596
-0.275254
-0.274931
-0.276524
-0.277697
-0.276296
-0.275798
-0.275553
-0.275201
-0.27485
-0.27453
-0.274228
-0.27394
-0.273668
-0.274126
-0.275426
-0.274496
-0.274203
-0.274048
-0.273786
-0.27351
-0.27325
-0.272998
-0.272755
-0.272522
-0.271384
-0.272738
-0.272323
-0.272273
-0.272246
-0.272104
-0.271927
-0.271741
-0.271554
-0.271367
-0.271182
-0.268342
-0.269716
-0.269799
-0.270004
-0.270139
-0.270149
-0.270091
-0.269999
-0.269889
-0.26977
-0.269643
-0.269513
-0.265079
-0.266473
-0.266977
-0.267421
-0.267749
-0.267937
-0.268017
-0.268034
-0.268016
-0.267975
-0.267916
-0.267843
-0.261724
-0.263127
-0.263925
-0.26458
-0.265119
-0.265501
-0.265738
-0.265882
-0.265968
-0.266015
-0.266032
-0.266023
-0.258454
-0.259746
-0.26064
-0.261439
-0.262175
-0.262754
-0.263163
-0.263452
-0.26366
-0.26381
-0.263915
-0.263984
-0.25527
-0.256331
-0.257097
-0.25793
-0.258804
-0.259551
-0.260126
-0.260565
-0.260905
-0.261172
-0.26138
-0.261538
-0.261654
-0.251035
-0.253024
-0.253823
-0.254707
-0.255698
-0.256582
-0.257286
-0.257839
-0.258283
-0.258644
-0.258937
-0.259171
-0.259356
-0.245514
-0.248259
-0.249063
-0.249877
-0.250965
-0.252022
-0.252894
-0.253594
-0.254175
-0.254666
-0.255078
-0.25542
-0.255698
-0.239874
-0.243093
-0.243916
-0.244688
-0.245865
-0.247087
-0.248119
-0.248962
-0.249675
-0.250292
-0.250823
-0.251272
-0.251644
-0.230008
-0.233917
-0.228536
-0.237877
-0.232575
-0.241748
-0.236341
-0.229985
-0.246492
-0.24098
-0.234503
)
;

boundaryField
{
    inlet
    {
        type            zeroGradient;
    }
    outlet
    {
        type            fixedValue;
        value           nonuniform 0();
    }
    cylinder
    {
        type            zeroGradient;
    }
    top
    {
        type            symmetryPlane;
    }
    bottom
    {
        type            symmetryPlane;
    }
    defaultFaces
    {
        type            empty;
    }
    procBoundary9to5
    {
        type            processor;
        value           nonuniform List<scalar> 
33
(
-0.278208
-0.278692
-0.279173
-0.279647
-0.280106
-0.28054
-0.280938
-0.281288
-0.281577
-0.281793
-0.281926
-0.281966
-0.281909
-0.281762
-0.281538
-0.281252
-0.280972
-0.272442
-0.274009
-0.274899
-0.275622
-0.276249
-0.276799
-0.277308
-0.277798
-0.278208
-0.280841
-0.280529
-0.28025
-0.279931
-0.279604
-0.279271
-0.278941
)
;
    }
    procBoundary9to6
    {
        type            processor;
        value           uniform -0.278622;
    }
    procBoundary9to8
    {
        type            processor;
        value           nonuniform List<scalar> 
29
(
-0.112605
-0.103183
-0.139454
-0.12646
-0.112605
-0.114864
-0.179085
-0.160972
-0.139454
-0.144836
-0.211928
-0.179085
-0.189275
-0.254514
-0.211928
-0.22632
-0.307449
-0.254514
-0.273818
-0.307449
-0.330213
-0.383971
-0.330213
-0.352124
-0.412644
-0.383971
-0.396066
-0.412644
-0.409464
)
;
    }
    procBoundary9to10
    {
        type            processor;
        value           nonuniform List<scalar> 
38
(
-0.278638
-0.278667
-0.278667
-0.278396
-0.278439
-0.278486
-0.278532
-0.278575
-0.278609
-0.278632
-0.278639
-0.278626
-0.278588
-0.278588
-0.278143
-0.278025
-0.277858
-0.277628
-0.277321
-0.277321
-0.276574
-0.276064
-0.275422
-0.27463
-0.27463
-0.273416
-0.272302
-0.271003
-0.271003
-0.269383
-0.26776
-0.265995
-0.264022
-0.264022
-0.261734
-0.259496
-0.255918
-0.251946
)
;
    }
    procBoundary9to12
    {
        type            processor;
        value           nonuniform List<scalar> 2(-0.0945 -0.0947567);
    }
    procBoundary9to13
    {
        type            processor;
        value           nonuniform List<scalar> 
58
(
-0.226054
-0.222062
-0.218385
-0.218031
-0.218385
-0.214361
-0.216007
-0.216007
-0.211992
-0.207929
-0.203812
-0.206442
-0.206442
-0.202271
-0.198022
-0.193687
-0.19667
-0.19667
-0.192235
-0.187686
-0.183014
-0.178214
-0.173277
-0.168199
-0.162972
-0.157592
-0.160534
-0.160534
-0.154827
-0.148935
-0.142854
-0.136579
-0.130108
-0.130108
-0.115277
-0.10853
-0.101604
-0.234154
-0.237654
-0.238589
-0.239392
-0.240657
-0.242023
-0.243204
-0.244179
-0.245014
-0.245746
-0.246386
-0.246933
-0.247394
-0.226054
-0.224648
-0.224648
-0.222178
-0.226205
-0.226205
-0.22424
-0.228545
)
;
    }
}


// ************************************************************************* //
