/*--------------------------------*- C++ -*----------------------------------*\
  =========                 |
  \\      /  F ield         | OpenFOAM: The Open Source CFD Toolbox
   \\    /   O peration     | Website:  https://openfoam.org
    \\  /    A nd           | Version:  7
     \\/     M anipulation  |
\*---------------------------------------------------------------------------*/
FoamFile
{
    version     2.0;
    format      ascii;
    class       volScalarField;
    location    "25";
    object      p;
}
// * * * * * * * * * * * * * * * * * * * * * * * * * * * * * * * * * * * * * //

dimensions      [0 2 -2 0 0 0 0];

internalField   nonuniform List<scalar> 
1987
(
0.597101
0.581959
0.573518
0.564458
0.553354
0.540194
0.597101
0.581959
0.573518
0.564458
0.553354
0.540194
0.525198
0.508784
0.491371
0.473319
0.454921
0.436415
0.417988
0.399788
0.38193
0.364502
0.347569
0.331179
0.315365
0.30015
0.285544
0.271553
0.25817
0.245383
0.233197
0.59509
0.580002
0.571645
0.562697
0.551716
0.538679
0.523799
0.507494
0.490181
0.472221
0.453908
0.43548
0.417124
0.39899
0.381193
0.36382
0.346938
0.330595
0.314824
0.299648
0.28508
0.271122
0.257767
0.245007
0.232859
0.591074
0.576097
0.567907
0.559181
0.548446
0.535654
0.521007
0.504918
0.487804
0.470028
0.451885
0.433612
0.4154
0.397397
0.37972
0.362458
0.345678
0.329429
0.313744
0.298647
0.284151
0.27026
0.256963
0.244255
0.232185
0.585069
0.570258
0.562316
0.553924
0.543556
0.531129
0.516829
0.501063
0.484249
0.466748
0.448857
0.430817
0.412819
0.395012
0.377516
0.36042
0.343793
0.327683
0.312127
0.297148
0.282762
0.268971
0.25576
0.24313
0.231174
0.577098
0.562507
0.554894
0.546942
0.537061
0.52512
0.511281
0.495944
0.479526
0.462389
0.444834
0.427103
0.409389
0.391844
0.374587
0.357712
0.341287
0.325363
0.309977
0.295155
0.280914
0.267256
0.254159
0.241634
0.229828
0.567191
0.552872
0.545667
0.538261
0.528984
0.517645
0.504379
0.489576
0.47365
0.456967
0.439829
0.422482
0.405121
0.3879
0.370942
0.35434
0.338166
0.322474
0.307301
0.292674
0.278613
0.26512
0.252165
0.239769
0.228151
0.555385
0.541391
0.534669
0.527911
0.519353
0.508731
0.496147
0.481979
0.466639
0.450497
0.433857
0.416967
0.400027
0.383193
0.36659
0.350315
0.334441
0.319024
0.304103
0.289709
0.275864
0.262568
0.249783
0.237542
0.226145
0.541726
0.528106
0.52194
0.515929
0.5082
0.498407
0.486612
0.473177
0.458517
0.442999
0.426935
0.410575
0.394121
0.377735
0.361543
0.345646
0.33012
0.315022
0.300394
0.286269
0.272674
0.259605
0.247018
0.234955
0.223813
0.526265
0.513067
0.507527
0.502357
0.495564
0.486707
0.475803
0.4632
0.449307
0.434498
0.419085
0.403324
0.387422
0.371542
0.355817
0.340347
0.325214
0.310478
0.296182
0.282362
0.269049
0.25624
0.243876
0.232015
0.22116
0.50906
0.496331
0.491482
0.487244
0.481487
0.47367
0.463758
0.452079
0.439041
0.425018
0.41033
0.395237
0.379948
0.364633
0.349426
0.334433
0.319738
0.305404
0.291478
0.277998
0.264999
0.252479
0.240364
0.228729
0.218189
0.490178
0.477962
0.473864
0.470641
0.466019
0.45934
0.450515
0.43985
0.427749
0.41459
0.400698
0.386337
0.371721
0.357026
0.342388
0.327919
0.313705
0.299813
0.286293
0.273187
0.260534
0.248331
0.236492
0.225102
0.214907
0.46969
0.458029
0.454738
0.452609
0.449211
0.443765
0.436117
0.426551
0.415467
0.403246
0.390217
0.37665
0.362766
0.348743
0.334724
0.320823
0.307132
0.29372
0.280641
0.267941
0.255663
0.243805
0.232267
0.221144
0.211318
0.447674
0.436607
0.434175
0.43321
0.431122
0.426996
0.420612
0.412226
0.402234
0.39102
0.378919
0.366206
0.353108
0.339807
0.326453
0.313164
0.300035
0.28714
0.274536
0.262272
0.250399
0.238913
0.227698
0.216863
0.207429
0.424214
0.413777
0.41225
0.412515
0.411814
0.409091
0.40405
0.396921
0.388091
0.37795
0.366837
0.355035
0.342774
0.330245
0.3176
0.304963
0.292434
0.28009
0.267993
0.256195
0.244753
0.233665
0.222797
0.212268
0.203247
0.3994
0.389628
0.389043
0.390596
0.391353
0.390107
0.386485
0.380683
0.373083
0.364076
0.354009
0.34317
0.331796
0.320082
0.308188
0.296242
0.284348
0.272588
0.261028
0.249724
0.238739
0.228072
0.217573
0.207367
0.198778
0.373328
0.36425
0.364642
0.367533
0.36981
0.37011
0.367975
0.363566
0.357256
0.349441
0.340473
0.330645
0.320204
0.309348
0.298244
0.287024
0.275798
0.264654
0.253658
0.242875
0.232371
0.222148
0.212039
0.202172
0.19403
0.346096
0.33774
0.339136
0.343406
0.347258
0.349165
0.348579
0.345623
0.340661
0.33409
0.326268
0.317498
0.308031
0.298072
0.287794
0.277334
0.266807
0.256306
0.245903
0.235664
0.225663
0.215905
0.206205
0.196693
0.189012
0.31781
0.3102
0.31262
0.318302
0.323776
0.327343
0.328362
0.326912
0.323348
0.318069
0.311439
0.303768
0.295312
0.286286
0.276866
0.267197
0.257399
0.247568
0.23778
0.228107
0.21863
0.209357
0.200085
0.190941
0.18373
0.288578
0.281736
0.285193
0.292312
0.299444
0.304717
0.307388
0.307493
0.305372
0.301427
0.296028
0.289493
0.282084
0.274023
0.265492
0.256641
0.247596
0.238459
0.22931
0.220224
0.211289
0.202518
0.193692
0.184926
0.178193
0.258513
0.252456
0.256957
0.265529
0.274347
0.281362
0.285726
0.287426
0.286788
0.284215
0.280082
0.274715
0.268384
0.261316
0.2537
0.245693
0.237425
0.229003
0.220513
0.212033
0.203657
0.195405
0.187037
0.178661
0.17241
0.227731
0.222474
0.228019
0.238049
0.248572
0.257357
0.263447
0.266776
0.267654
0.266484
0.263648
0.259477
0.25425
0.2482
0.241523
0.234382
0.226911
0.219224
0.21141
0.203552
0.195751
0.188031
0.180136
0.172156
0.166388
0.196351
0.191904
0.198485
0.20997
0.222207
0.232782
0.240622
0.245607
0.248029
0.248288
0.246773
0.243822
0.239722
0.234712
0.228994
0.222736
0.216081
0.209146
0.202023
0.194802
0.187589
0.180414
0.173003
0.165423
0.160134
0.164493
0.160864
0.168468
0.181395
0.195344
0.207718
0.217326
0.223987
0.227972
0.229681
0.229507
0.227796
0.22484
0.220887
0.216144
0.210787
0.204962
0.198793
0.192376
0.185803
0.17919
0.172571
0.165653
0.158474
0.153656
0.132281
0.129474
0.13808
0.152427
0.168076
0.182249
0.193633
0.201983
0.207546
0.21072
0.211901
0.211443
0.209645
0.206763
0.203009
0.198564
0.193582
0.18819
0.18249
0.176577
0.170572
0.164519
0.158102
0.151321
0.146958
0.0998391
0.0978545
0.107435
0.12317
0.140498
0.15646
0.16962
0.179664
0.186812
0.191459
0.194005
0.194809
0.19418
0.192377
0.189621
0.186099
0.181969
0.177364
0.172389
0.167143
0.161755
0.156278
0.15037
0.143975
0.140043
0.0672925
0.0661276
0.0766495
0.0937306
0.112705
0.130437
0.145364
0.157098
0.165833
0.171955
0.17587
0.177942
0.178485
0.177768
0.176017
0.173423
0.170152
0.16634
0.162098
0.157525
0.152759
0.147869
0.14248
0.136453
0.132911
0.0347666
0.0344149
0.0458383
0.0642151
0.0847931
0.104267
0.120941
0.134357
0.144672
0.152267
0.157548
0.160887
0.162604
0.162974
0.162229
0.160568
0.158158
0.155144
0.151639
0.147744
0.143604
0.13931
0.13446
0.128779
0.125551
0.00238679
0.00283766
0.0151178
0.0347306
0.0568591
0.0780343
0.0964311
0.111509
0.123392
0.132449
0.13909
0.14369
0.146578
0.148033
0.148294
0.147564
0.146017
0.143802
0.141038
0.137824
0.134308
0.130618
0.126343
0.120993
0.117937
-0.0297225
-0.0284841
-0.0153965
0.00538381
0.0289994
0.051827
0.0719101
0.0886247
0.102056
0.11256
0.120548
0.1264
0.13045
0.132984
0.134245
0.134443
0.133757
0.132341
0.130318
0.127787
0.124892
0.121804
0.118167
0.113205
0.110045
-0.0614378
-0.0594323
-0.0455898
-0.0237192
0.00130997
0.0257307
0.0474553
0.0657728
0.0807253
0.0926553
0.101972
0.109061
0.114261
0.117863
0.120117
0.121237
0.121407
0.120785
0.119502
0.117657
0.115379
0.112875
0.109939
0.105573
0.101697
-0.0926353
-0.0898919
-0.0753492
-0.0524735
-0.0261143
-0.00016951
0.023143
0.0430218
0.0594626
0.0727909
0.0834136
0.0917197
0.0980527
0.102709
0.105944
0.107976
0.108994
0.109161
0.108614
0.107455
0.105795
0.103837
0.101596
0.0983089
0.0932983
-0.123191
-0.119749
-0.104564
-0.0807759
-0.0531796
-0.0257898
-0.000951787
0.0204391
0.0383283
0.0530215
0.0649218
0.0744206
0.0818658
0.0875588
0.0917593
0.0946909
0.0965462
0.097493
0.0976748
0.0972007
0.0961668
0.0947454
0.0931198
0.0909836
0.0869981
-0.153018
-0.148868
-0.133129
-0.108526
-0.0797942
-0.0510477
-0.0247554
-0.00190924
0.0173818
0.0334009
0.0465453
0.0572078
0.0657401
0.072448
0.0775956
0.0814108
0.0840903
0.0858057
0.0867063
0.0869111
0.0865113
0.0856423
0.0845703
0.0834046
0.0807054
-0.182119
-0.177078
-0.160944
-0.135624
-0.105869
-0.0758632
-0.048196
-0.0239588
-0.00331871
0.0139815
0.0283315
0.0401243
0.0497146
0.0574122
0.063485
0.0681649
0.0716526
0.0741229
0.0757299
0.0766025
0.0768346
0.0765318
0.0759756
0.0755072
0.0737234
-0.210235
-0.20439
-0.187939
-0.161972
-0.131317
-0.100158
-0.0712038
-0.0456471
-0.0237171
-0.00518582
0.0103265
0.0232118
0.0338273
0.0424857
0.0494585
0.0549814
0.0592582
0.0624672
0.064766
0.0662912
0.0671428
0.0674066
0.0673524
0.0674297
-0.237261
-0.230701
-0.214012
-0.187478
-0.156058
-0.123857
-0.0937113
-0.0669138
-0.043759
-0.0240521
-0.00742545
0.00651062
0.0181145
0.0277016
0.0355465
0.0418874
0.0469319
0.0508607
0.0538344
0.055995
0.0574486
0.05827
0.0587138
0.0592868
-0.263128
-0.255903
-0.238936
-0.212154
-0.180012
-0.146886
-0.115654
-0.0877008
-0.0633923
-0.0425702
-0.0248815
-0.00994048
0.00261162
0.0130921
0.0217777
0.0289095
0.0346974
0.0393248
0.0429543
0.0457319
0.0477692
0.0491348
0.0500692
0.0511119
-0.28776
-0.279916
-0.262754
-0.235786
-0.203101
-0.169174
-0.136969
-0.107953
-0.0825671
-0.0606951
-0.0420009
-0.0261045
-0.0126478
-0.00131232
0.00818024
0.0160729
0.0225778
0.0278802
0.0321446
0.0355197
0.0381216
0.040016
0.0414282
-0.311084
-0.302661
-0.285387
-0.258281
-0.225278
-0.190653
-0.157599
-0.127617
-0.101236
-0.0783844
-0.0587452
-0.0419463
-0.0276316
-0.0154825
-0.00521941
0.00340187
0.0105951
0.0165471
0.0214236
0.0253753
0.0285223
0.0309288
0.0328033
-0.333037
-0.324063
-0.306758
-0.279635
-0.246396
-0.211297
-0.17749
-0.146643
-0.119356
-0.0955978
-0.0750778
-0.0574328
-0.0423097
-0.0293907
-0.018396
-0.00908055
-0.00122964
0.00534477
0.0108091
0.0153151
0.0189865
0.0218876
-0.35356
-0.344062
-0.326798
-0.299788
-0.266452
-0.231002
-0.196584
-0.164986
-0.136884
-0.112298
-0.0909648
-0.0725329
-0.0566537
-0.0430111
-0.0313258
-0.0213526
-0.0128763
-0.00570846
0.000317808
0.00535486
0.00952931
0.0129068
-0.372604
-0.36261
-0.345453
-0.318676
-0.285393
-0.249722
-0.214837
-0.182602
-0.153783
-0.128451
-0.106375
-0.087218
-0.0706373
-0.0563194
-0.0439864
-0.0333937
-0.0243261
-0.0165951
-0.0100339
-0.00449018
0.000165287
0.00400047
-0.390127
-0.379667
-0.36268
-0.336246
-0.303163
-0.26742
-0.232205
-0.199453
-0.170018
-0.144024
-0.121279
-0.101462
-0.0842362
-0.0692933
-0.0563574
-0.0451848
-0.0355614
-0.0272988
-0.0202308
-0.0142056
-0.00909183
-0.406099
-0.395203
-0.378442
-0.352457
-0.319717
-0.284057
-0.248652
-0.215509
-0.185554
-0.158989
-0.135652
-0.11524
-0.0974282
-0.0819123
-0.0684196
-0.0567083
-0.0465657
-0.0378043
-0.0302586
-0.0237778
-0.0182291
-0.392717
-0.367278
-0.33502
-0.299595
-0.264143
-0.230734
-0.200371
-0.17332
-0.14947
-0.128533
-0.110194
-0.0941579
-0.0801559
-0.0679482
-0.0573241
-0.0480975
-0.040104
-0.0331943
-0.0272347
-0.380688
-0.349043
-0.314003
-0.27865
-0.245102
-0.214441
-0.187003
-0.162709
-0.14132
-0.122515
-0.106014
-0.0915509
-0.0788899
-0.0678228
-0.0581654
-0.0497548
-0.0424434
-0.0360974
-0.327257
-0.292148
-0.25859
-0.227744
-0.200012
-0.175365
-0.153581
-0.134376
-0.117465
-0.102591
-0.0895206
-0.0780496
-0.0679965
-0.0592
-0.0515148
-0.304619
-0.271183
-0.240262
-0.212332
-0.187413
-0.165312
-0.145766
-0.1285
-0.113264
-0.0998289
-0.0879936
-0.0775805
-0.0684296
-0.0603988
-0.251985
-0.223952
-0.198842
-0.176498
-0.156674
-0.13911
-0.12356
-0.109805
-0.0976453
-0.0869086
-0.0774347
-0.0690871
-0.209647
-0.187131
-0.167093
-0.149286
-0.133474
-0.119442
-0.106997
-0.0959732
-0.0862075
-0.0775728
-0.177015
-0.159021
-0.142997
-0.128734
-0.116045
-0.104765
-0.0947415
-0.0858495
-0.137675
-0.124782
-0.113284
-0.103036
-0.0939089
-0.111083
0.220547
0.207862
0.195624
0.184233
0.173372
0.163285
0.153755
0.144941
0.136677
0.129075
0.121995
0.115526
0.109543
0.104128
0.0991611
0.0946952
0.0906452
0.0871091
0.083957
0.0812768
0.0789632
0.077112
0.0756353
0.074643
0.074104
0.220269
0.207635
0.195435
0.184079
0.173244
0.163181
0.15367
0.144872
0.13662
0.129029
0.121956
0.115495
0.109517
0.104106
0.0991427
0.0946797
0.0906324
0.0870975
0.0839468
0.0812676
0.0789549
0.0771043
0.0756282
0.0746362
0.0740975
0.219712
0.207179
0.195057
0.183769
0.172989
0.162973
0.153499
0.144734
0.136507
0.128936
0.12188
0.115433
0.109465
0.104063
0.0991062
0.0946513
0.0906067
0.0870744
0.0839264
0.0812492
0.0789382
0.0770889
0.0756139
0.0746226
0.0740844
0.218877
0.206497
0.19449
0.183305
0.172607
0.162662
0.153244
0.144526
0.136337
0.128798
0.121766
0.115339
0.109387
0.103997
0.0990507
0.0946008
0.0905685
0.0870398
0.0838959
0.0812216
0.0789133
0.0770659
0.0755926
0.0746023
0.0740648
0.217766
0.205588
0.193736
0.182688
0.172098
0.162247
0.152905
0.14425
0.136111
0.128613
0.121614
0.115214
0.109283
0.10391
0.0989761
0.0945496
0.0905187
0.0869937
0.0838552
0.0811849
0.0788801
0.0770353
0.0755642
0.0745752
0.0740386
0.216379
0.204454
0.192794
0.181917
0.171463
0.16173
0.15248
0.143905
0.135828
0.128383
0.121425
0.115058
0.109153
0.103802
0.0988831
0.0944742
0.0904559
0.0869363
0.0838045
0.0811391
0.0788387
0.076997
0.0755287
0.0745414
0.074006
0.214717
0.203095
0.191665
0.180993
0.170702
0.16111
0.151972
0.143492
0.13549
0.128107
0.121198
0.114871
0.108998
0.103672
0.0987726
0.094385
0.0903799
0.0868677
0.0837437
0.0810843
0.078789
0.0769512
0.0754862
0.0745009
0.0739669
0.212782
0.201512
0.190351
0.179918
0.169816
0.160388
0.151381
0.143011
0.135096
0.127786
0.120933
0.114654
0.108817
0.103521
0.0986444
0.0942804
0.090291
0.0867878
0.0836729
0.0810205
0.0787313
0.0768979
0.0754367
0.0744538
0.0739213
0.210577
0.199708
0.188853
0.178691
0.168806
0.159565
0.150706
0.142463
0.134646
0.12742
0.120632
0.114407
0.108611
0.103349
0.0984986
0.0941603
0.0901889
0.0866971
0.0835922
0.0809478
0.0786655
0.0768372
0.0753803
0.0744001
0.0738694
0.208104
0.197685
0.187171
0.177316
0.167672
0.158642
0.149949
0.141848
0.134143
0.12701
0.120294
0.114129
0.10838
0.103156
0.0983352
0.0940246
0.0900739
0.0865956
0.0835017
0.0808664
0.0785916
0.076769
0.075317
0.0743399
0.0738111
0.205365
0.195443
0.185308
0.175792
0.166416
0.157619
0.149111
0.141166
0.133584
0.126555
0.11992
0.113821
0.108124
0.102942
0.0981546
0.0938737
0.0899476
0.0864833
0.0834015
0.0807762
0.0785099
0.0766936
0.075247
0.0742731
0.0737465
0.202363
0.192985
0.183265
0.17412
0.165039
0.156497
0.148191
0.140419
0.132972
0.126056
0.119509
0.113484
0.107844
0.102708
0.0979568
0.0937047
0.0897915
0.0863618
0.083292
0.0806775
0.0784204
0.0766109
0.0751702
0.0742
0.0736757
0.199102
0.190315
0.181045
0.172304
0.163541
0.155278
0.147191
0.139607
0.132307
0.125514
0.119063
0.113118
0.107539
0.102454
0.0977417
0.0935185
0.0896683
0.0862328
0.0831731
0.0805702
0.0783231
0.0765211
0.0750868
0.0741205
0.0735987
0.195586
0.187434
0.178648
0.170343
0.161925
0.153962
0.146112
0.13873
0.131588
0.124929
0.118582
0.112723
0.107211
0.10218
0.0975101
0.0933176
0.0894959
0.0860917
0.0830452
0.0804546
0.0782182
0.0764243
0.0749968
0.0740347
0.0735156
0.191818
0.184345
0.176077
0.16824
0.16019
0.15255
0.144954
0.13779
0.130818
0.124302
0.118066
0.112299
0.106859
0.101887
0.0972623
0.0931048
0.0893153
0.0859378
0.0829084
0.0803308
0.0781059
0.0763205
0.0749003
0.0739428
0.0734264
0.187804
0.181052
0.173334
0.165997
0.15834
0.151044
0.143719
0.136786
0.129997
0.123633
0.117516
0.111847
0.106483
0.101574
0.0969982
0.0928787
0.089122
0.0857691
0.0827631
0.080199
0.0779862
0.0762099
0.0747975
0.0738447
0.0733312
0.183547
0.177558
0.170422
0.163616
0.156374
0.149445
0.142407
0.135721
0.129124
0.122923
0.116933
0.111367
0.106085
0.101242
0.0967182
0.0926391
0.088913
0.0855893
0.0826112
0.0800594
0.0778592
0.0760926
0.0746883
0.0737407
0.0732302
0.179053
0.173867
0.167343
0.161098
0.154295
0.147753
0.14102
0.134594
0.128202
0.122171
0.116315
0.11086
0.105665
0.100891
0.0964226
0.0923863
0.0886908
0.0854314
0.0824516
0.079912
0.0777252
0.0759688
0.074573
0.0736308
0.0731233
0.174327
0.169982
0.164099
0.158446
0.152105
0.145971
0.139558
0.133407
0.12723
0.12138
0.115666
0.110326
0.105222
0.100521
0.0961115
0.0921207
0.0884585
0.0852201
0.0822761
0.0797579
0.0775843
0.0758384
0.0744517
0.073515
0.0730107
0.169373
0.165907
0.160693
0.155662
0.149804
0.1441
0.138023
0.13216
0.12621
0.120549
0.114984
0.109766
0.104757
0.100134
0.0957852
0.0918426
0.0882173
0.0850072
0.0820978
0.0795989
0.0774365
0.0757018
0.0743244
0.0733936
0.0728925
0.164197
0.161647
0.157128
0.152747
0.147394
0.14214
0.136415
0.130854
0.125143
0.119679
0.11427
0.109179
0.104272
0.0997286
0.095444
0.0915518
0.0879656
0.0847844
0.0819281
0.0794295
0.0772821
0.0755591
0.0741913
0.0732665
0.0727687
0.158803
0.157205
0.153405
0.149705
0.144879
0.140093
0.134737
0.129491
0.124028
0.118771
0.113526
0.108567
0.103765
0.0993058
0.0950882
0.0912487
0.0877038
0.0845532
0.0817171
0.0792324
0.0771234
0.0754103
0.0740525
0.073134
0.0726395
0.153195
0.152586
0.149528
0.146537
0.142258
0.137961
0.132989
0.12807
0.122868
0.117825
0.11275
0.10793
0.103237
0.098866
0.0947181
0.0909334
0.0874319
0.0843144
0.0815024
0.0790984
0.0769577
0.0752556
0.0739082
0.0729962
0.072505
0.147374
0.147792
0.1455
0.143245
0.139535
0.135744
0.131173
0.126593
0.121662
0.116842
0.111946
0.107269
0.10269
0.0984096
0.094334
0.0906064
0.08715
0.0840675
0.0812824
0.0788846
0.0767744
0.075096
0.0737586
0.0728531
0.0723653
0.14134
0.142826
0.141322
0.139831
0.136712
0.133444
0.12929
0.125062
0.120412
0.115824
0.111111
0.106584
0.102123
0.0979369
0.0939363
0.0902678
0.0868583
0.0838124
0.081057
0.078678
0.0766267
0.074931
0.0736039
0.0727048
0.0722204
0.135086
0.137687
0.136997
0.136294
0.13379
0.13106
0.127339
0.123475
0.119117
0.114768
0.110247
0.105874
0.101536
0.0974475
0.0935247
0.0899174
0.0865565
0.0835487
0.0808245
0.0784691
0.0764269
0.0747627
0.0734426
0.0725516
0.0720706
0.128607
0.132378
0.132532
0.132638
0.13077
0.128594
0.125322
0.121832
0.117777
0.113676
0.109353
0.105139
0.100929
0.0969412
0.0930989
0.0895552
0.0862448
0.0832765
0.0805846
0.0782545
0.0762296
0.0745906
0.0732738
0.0723938
0.0719159
0.121906
0.126904
0.12794
0.128877
0.127674
0.126067
0.123258
0.120153
0.11641
0.112563
0.108444
0.104394
0.100313
0.0964286
0.092668
0.0891884
0.085929
0.0830004
0.0803408
0.078036
0.0760318
0.0744052
0.0731169
0.0722317
0.0717565
0.114877
0.121186
0.12318
0.124998
0.124494
0.123483
0.121156
0.118453
0.115032
0.111447
0.107535
0.103651
0.0997007
0.0959193
0.0922394
0.088823
0.0856132
0.0827232
0.080095
0.0778146
0.0758307
0.0742176
0.0729381
0.0720664
0.0715925
0.107192
0.115004
0.118082
0.120769
0.120992
0.120593
0.118777
0.116499
0.113428
0.110132
0.106454
0.102759
0.0989617
0.095303
0.0917219
0.0883843
0.0852382
0.082399
0.0798125
0.0775652
0.0756087
0.0740166
0.0727517
0.0718921
0.0714235
0.0978055
0.107058
0.111697
0.115088
0.11618
0.116407
0.115227
0.113464
0.110871
0.10797
0.104645
0.101241
0.0976972
0.0942469
0.0908441
0.0876521
0.084629
0.0818888
0.0793855
0.0772044
0.0753023
0.0737519
0.072519
0.0716803
0.0712239
0.0908059
0.0992402
0.104975
0.108978
0.110879
0.111727
0.111186
0.109962
0.107876
0.10541
0.102477
0.0994083
0.0961571
0.0929545
0.089765
0.0867512
0.083879
0.081263
0.0788636
0.0767665
0.074933
0.0734355
0.0722429
0.0714304
0.0709883
0.0820817
0.0887229
0.084269
)
;

boundaryField
{
    inlet
    {
        type            zeroGradient;
    }
    outlet
    {
        type            fixedValue;
        value           nonuniform 0();
    }
    cylinder
    {
        type            zeroGradient;
    }
    top
    {
        type            symmetryPlane;
    }
    bottom
    {
        type            symmetryPlane;
    }
    defaultFaces
    {
        type            empty;
    }
    procBoundary4to0
    {
        type            processor;
        value           nonuniform List<scalar> 
56
(
0.0752448
0.0662753
0.0685324
0.0662753
0.0586719
0.0510123
0.0429132
0.0429132
0.0347048
0.0242092
0.0242092
0.0156606
0.0071713
-0.00481855
-0.00481855
-0.0135381
-0.0221468
-0.0306343
-0.0448071
-0.0448071
-0.0533549
-0.0617324
-0.0699326
-0.0779491
-0.0857767
-0.101751
-0.101751
0.0848321
0.0925531
0.0986684
0.103065
0.105596
0.106977
0.107013
0.106298
0.104705
0.102675
0.10014
0.0974186
0.0944755
0.0915379
0.0885782
0.0857591
0.0830526
0.0805744
0.0782907
0.0762876
0.074531
0.0730929
0.0719455
0.0711627
0.0707362
0.0752448
0.0773706
0.0773706
0.0790236
)
;
    }
    procBoundary4to5
    {
        type            processor;
        value           nonuniform List<scalar> 
28
(
-0.420499
-0.4092
-0.4092
-0.405489
-0.405489
-0.392672
-0.361766
-0.361766
-0.33934
-0.33934
-0.31605
-0.282867
-0.282867
-0.262903
-0.234864
-0.234864
-0.219822
-0.197205
-0.197205
-0.186439
-0.168313
-0.152124
-0.152124
-0.146262
-0.133204
-0.121525
-0.121525
-0.118878
)
;
    }
    procBoundary4to8
    {
        type            processor;
        value           nonuniform List<scalar> 
51
(
0.59509
0.580002
0.571645
0.562697
0.551716
0.538679
0.525198
0.525198
0.508784
0.491371
0.473319
0.454921
0.436415
0.417988
0.399788
0.38193
0.364502
0.347569
0.331179
0.315365
0.30015
0.285544
0.271553
0.25817
0.245383
0.233197
0.220547
0.207862
0.195624
0.184233
0.173372
0.163285
0.153755
0.144941
0.136677
0.129075
0.121995
0.115526
0.109543
0.104128
0.0991611
0.0946952
0.0906452
0.0871091
0.083957
0.0812768
0.0789632
0.077112
0.0756353
0.074643
0.074104
)
;
    }
}


// ************************************************************************* //
