/*--------------------------------*- C++ -*----------------------------------*\
  =========                 |
  \\      /  F ield         | OpenFOAM: The Open Source CFD Toolbox
   \\    /   O peration     | Website:  https://openfoam.org
    \\  /    A nd           | Version:  7
     \\/     M anipulation  |
\*---------------------------------------------------------------------------*/
FoamFile
{
    version     2.0;
    format      ascii;
    class       volVectorField;
    location    "140";
    object      U;
}
// * * * * * * * * * * * * * * * * * * * * * * * * * * * * * * * * * * * * * //

dimensions      [0 1 -1 0 0 0 0];

internalField   nonuniform List<vector> 
1989
(
(1.0038 -0.261875 0)
(0.978607 -0.253895 0)
(0.953977 -0.244038 0)
(0.929812 -0.232362 0)
(0.905952 -0.218859 0)
(0.882456 -0.203171 0)
(0.85964 -0.184738 0)
(0.837449 -0.163558 0)
(0.815082 -0.140416 0)
(0.79205 -0.115744 0)
(0.769883 -0.0883085 0)
(0.752384 -0.0555937 0)
(0.743803 -0.0158244 0)
(0.746564 0.0302451 0)
(0.760302 0.0793172 0)
(0.782662 0.127357 0)
(0.810656 0.171195 0)
(0.841565 0.209625 0)
(0.873433 0.243661 0)
(0.905317 0.275897 0)
(0.937372 0.308833 0)
(0.970782 0.342455 0)
(1.00715 0.372516 0)
(1.0469 0.39138 0)
(1.08814 0.390772 0)
(1.12733 0.363826 0)
(1.16026 0.305869 0)
(1.18417 0.215551 0)
(1.19875 0.0985278 0)
(1.1062 0.067781 0)
(1.11767 0.078684 0)
(1.13212 0.0875292 0)
(1.14927 0.0935833 0)
(1.1687 0.0961306 0)
(1.18982 0.094529 0)
(1.21187 0.0882666 0)
(1.23392 0.0770244 0)
(1.25491 0.0607455 0)
(1.27371 0.0396963 0)
(1.28921 0.0144916 0)
(1.30046 -0.0139718 0)
(1.30665 -0.0446019 0)
(1.30735 -0.0760923 0)
(1.30251 -0.107158 0)
(1.29246 -0.136687 0)
(1.2778 -0.163789 0)
(1.25928 -0.187829 0)
(1.23771 -0.208429 0)
(1.21392 -0.225427 0)
(1.18861 -0.238837 0)
(1.16242 -0.248797 0)
(1.13584 -0.255524 0)
(1.10924 -0.259281 0)
(1.0829 -0.26034 0)
(1.05698 -0.258953 0)
(1.03158 -0.25534 0)
(1.00672 -0.249689 0)
(0.982402 -0.242111 0)
(0.95861 -0.23263 0)
(0.935309 -0.221272 0)
(0.912375 -0.208055 0)
(0.889819 -0.19273 0)
(0.86797 -0.17476 0)
(0.847062 -0.153917 0)
(0.82661 -0.130806 0)
(0.805856 -0.106221 0)
(0.785347 -0.0797986 0)
(0.767876 -0.0497023 0)
(0.757485 -0.0140217 0)
(0.75728 0.0273995 0)
(0.767902 0.072343 0)
(0.787696 0.117375 0)
(0.813885 0.15944 0)
(0.843671 0.197113 0)
(0.874925 0.231019 0)
(0.906546 0.263297 0)
(0.938645 0.295996 0)
(0.972482 0.328825 0)
(1.00961 0.357743 0)
(1.05028 0.375814 0)
(1.09258 0.375505 0)
(1.1328 0.350377 0)
(1.16667 0.295469 0)
(1.19184 0.208545 0)
(1.20805 0.094976 0)
(1.11484 0.0611841 0)
(1.12554 0.0702269 0)
(1.13887 0.0773856 0)
(1.15457 0.0820189 0)
(1.17222 0.083508 0)
(1.19126 0.0813036 0)
(1.21097 0.0749767 0)
(1.2305 0.0642726 0)
(1.2489 0.0491658 0)
(1.26518 0.0299129 0)
(1.27841 0.00705636 0)
(1.28776 -0.0186678 0)
(1.29261 -0.0462874 0)
(1.29262 -0.0747161 0)
(1.28776 -0.10287 0)
(1.2783 -0.12979 0)
(1.26473 -0.154688 0)
(1.24765 -0.176977 0)
(1.22776 -0.196279 0)
(1.20573 -0.212397 0)
(1.1822 -0.225289 0)
(1.1577 -0.235027 0)
(1.13269 -0.241764 0)
(1.10754 -0.245697 0)
(1.0825 -0.247045 0)
(1.05776 -0.246016 0)
(1.03342 -0.242792 0)
(1.00955 -0.237532 0)
(0.986147 -0.23034 0)
(0.963239 -0.221238 0)
(0.940833 -0.210227 0)
(0.918861 -0.197322 0)
(0.897303 -0.182375 0)
(0.876441 -0.164933 0)
(0.856683 -0.144623 0)
(0.837903 -0.121781 0)
(0.819367 -0.0972989 0)
(0.800897 -0.0715008 0)
(0.784184 -0.0433624 0)
(0.772648 -0.0111782 0)
(0.769714 0.0258266 0)
(0.77697 0.0664659 0)
(0.793666 0.108104 0)
(0.817493 0.147996 0)
(0.845708 0.1846 0)
(0.876031 0.218168 0)
(0.907189 0.250339 0)
(0.939232 0.282648 0)
(0.973409 0.314526 0)
(1.01114 0.342182 0)
(1.05255 0.359387 0)
(1.09567 0.359378 0)
(1.13659 0.336098 0)
(1.17123 0.284164 0)
(1.1978 0.200615 0)
(1.21582 0.0907371 0)
(1.12169 0.0548386 0)
(1.13149 0.0621908 0)
(1.14357 0.0678307 0)
(1.15769 0.0712042 0)
(1.17347 0.0717821 0)
(1.19038 0.0691001 0)
(1.20778 0.0628017 0)
(1.22491 0.0526844 0)
(1.24093 0.0387433 0)
(1.25499 0.0212011 0)
(1.26628 0.000526368 0)
(1.27411 -0.0226608 0)
(1.27798 -0.0475278 0)
(1.2776 -0.073166 0)
(1.27293 -0.0986597 0)
(1.26418 -0.123177 0)
(1.25173 -0.146018 0)
(1.23608 -0.166641 0)
(1.21781 -0.184671 0)
(1.19749 -0.199891 0)
(1.17566 -0.212216 0)
(1.15282 -0.221665 0)
(1.12937 -0.228337 0)
(1.10565 -0.232373 0)
(1.08193 -0.233944 0)
(1.05838 -0.233215 0)
(1.03513 -0.230339 0)
(1.01227 -0.225443 0)
(0.989838 -0.218622 0)
(0.967856 -0.209899 0)
(0.946374 -0.199258 0)
(0.925385 -0.186701 0)
(0.904869 -0.172148 0)
(0.885035 -0.155265 0)
(0.866344 -0.13563 0)
(0.848991 -0.113311 0)
(0.832476 -0.0890794 0)
(0.816231 -0.0636811 0)
(0.800936 -0.0368846 0)
(0.789083 -0.00748284 0)
(0.783954 0.0255468 0)
(0.787844 0.0618968 0)
(0.801001 0.0998339 0)
(0.821838 0.137131 0)
(0.84789 0.172285 0)
(0.876829 0.205233 0)
(0.907246 0.237082 0)
(0.93909 0.268809 0)
(0.973489 0.299575 0)
(1.01168 0.325853 0)
(1.05364 0.342124 0)
(1.09725 0.342424 0)
(1.13852 0.321008 0)
(1.17383 0.271986 0)
(1.20196 0.19176 0)
(1.22197 0.0857295 0)
(1.12714 0.048831 0)
(1.13599 0.0546672 0)
(1.14681 0.0589578 0)
(1.15935 0.0612284 0)
(1.17329 0.0610301 0)
(1.18814 0.0579737 0)
(1.20335 0.0517657 0)
(1.21823 0.0422435 0)
(1.23208 0.0294133 0)
(1.24416 0.0134684 0)
(1.25378 -0.00522368 0)
(1.26035 -0.0260819 0)
(1.26345 -0.048444 0)
(1.26282 -0.0715434 0)
(1.25841 -0.0946013 0)
(1.25037 -0.116896 0)
(1.23901 -0.137806 0)
(1.22473 -0.156832 0)
(1.20799 -0.173614 0)
(1.18929 -0.18792 0)
(1.16909 -0.199634 0)
(1.14784 -0.208734 0)
(1.12591 -0.215272 0)
(1.10361 -0.219343 0)
(1.08119 -0.221072 0)
(1.05885 -0.220591 0)
(1.03672 -0.21802 0)
(1.01491 -0.213462 0)
(0.993468 -0.206995 0)
(0.972449 -0.198648 0)
(0.95192 -0.188397 0)
(0.931925 -0.176226 0)
(0.912473 -0.162091 0)
(0.893709 -0.145777 0)
(0.876057 -0.126899 0)
(0.859923 -0.105325 0)
(0.845145 -0.0815771 0)
(0.831094 -0.0565393 0)
(0.8177 -0.0306133 0)
(0.8064 -0.00325355 0)
(0.799897 0.0264515 0)
(0.800784 0.0587811 0)
(0.810198 0.0928762 0)
(0.827457 0.127191 0)
(0.850644 0.160458 0)
(0.877598 0.192401 0)
(0.906867 0.223611 0)
(0.938271 0.254502 0)
(0.972716 0.283971 0)
(1.01119 0.308757 0)
(1.05346 0.32407 0)
(1.09717 0.324741 0)
(1.13845 0.305199 0)
(1.17444 0.258917 0)
(1.20434 0.181847 0)
(1.22651 0.0798322 0)
(1.13142 0.0432053 0)
(1.13934 0.0476988 0)
(1.14893 0.0508058 0)
(1.15998 0.0521225 0)
(1.17217 0.051271 0)
(1.18511 0.0479268 0)
(1.19828 0.0418483 0)
(1.21112 0.032906 0)
(1.22301 0.0211097 0)
(1.23332 0.00663099 0)
(1.24146 -0.0102366 0)
(1.24695 -0.0289989 0)
(1.2494 -0.049096 0)
(1.24858 -0.0698877 0)
(1.24444 -0.0907136 0)
(1.23708 -0.110949 0)
(1.22672 -0.130044 0)
(1.21369 -0.147543 0)
(1.19838 -0.163102 0)
(1.18119 -0.176484 0)
(1.16255 -0.187551 0)
(1.14282 -0.19625 0)
(1.12235 -0.202592 0)
(1.10144 -0.206635 0)
(1.08032 -0.208466 0)
(1.05919 -0.208181 0)
(1.0382 -0.205874 0)
(1.01745 -0.201626 0)
(0.997032 -0.1955 0)
(0.977006 -0.187523 0)
(0.957455 -0.177675 0)
(0.938462 -0.165926 0)
(0.920077 -0.152243 0)
(0.902409 -0.136504 0)
(0.885804 -0.118415 0)
(0.870749 -0.0977431 0)
(0.8574 -0.0747376 0)
(0.845322 -0.0501913 0)
(0.834047 -0.0248774 0)
(0.824064 0.00109683 0)
(0.817194 0.0282594 0)
(0.815835 0.057105 0)
(0.821697 0.0874717 0)
(0.835017 0.118554 0)
(0.854661 0.149494 0)
(0.878918 0.179957 0)
(0.906471 0.210099 0)
(0.937034 0.239818 0)
(0.971239 0.267765 0)
(1.00975 0.290956 0)
(1.05197 0.305347 0)
(1.09534 0.306478 0)
(1.13638 0.288708 0)
(1.17318 0.244827 0)
(1.20515 0.170702 0)
(1.2296 0.0729586 0)
(1.13467 0.0379789 0)
(1.14171 0.0412953 0)
(1.15015 0.043375 0)
(1.15981 0.0438761 0)
(1.1704 0.0424819 0)
(1.18158 0.038923 0)
(1.19291 0.033001 0)
(1.20391 0.0246131 0)
(1.21404 0.0137711 0)
(1.22277 0.000611345 0)
(1.22961 -0.014596 0)
(1.23414 -0.0314602 0)
(1.23601 -0.0495096 0)
(1.23504 -0.0682054 0)
(1.23114 -0.0869878 0)
(1.22438 -0.105318 0)
(1.21493 -0.12271 0)
(1.20305 -0.138752 0)
(1.18905 -0.153119 0)
(1.17328 -0.165575 0)
(1.15608 -0.17597 0)
(1.13781 -0.184224 0)
(1.11875 -0.190318 0)
(1.09919 -0.194277 0)
(1.07936 -0.196154 0)
(1.05943 -0.196018 0)
(1.03958 -0.193938 0)
(1.01991 -0.189974 0)
(1.00053 -0.184174 0)
(0.981514 -0.176562 0)
(0.962961 -0.167126 0)
(0.944975 -0.155827 0)
(0.927647 -0.142635 0)
(0.911083 -0.127483 0)
(0.895544 -0.110184 0)
(0.881498 -0.0904981 0)
(0.869315 -0.0684617 0)
(0.858869 -0.044644 0)
(0.849645 -0.0199123 0)
(0.841479 0.00514087 0)
(0.83524 0.0305296 0)
(0.83271 0.0566305 0)
(0.835706 0.0836807 0)
(0.845166 0.111523 0)
(0.860837 0.139799 0)
(0.881717 0.168277 0)
(0.906858 0.196832 0)
(0.93599 0.224946 0)
(0.969489 0.251092 0)
(1.00759 0.272599 0)
(1.04926 0.286145 0)
(1.09183 0.287765 0)
(1.13256 0.271485 0)
(1.17049 0.229527 0)
(1.20485 0.158167 0)
(1.23149 0.0650816 0)
(1.13701 0.0331542 0)
(1.14322 0.0354481 0)
(1.15061 0.0366448 0)
(1.159 0.0364564 0)
(1.16814 0.0346183 0)
(1.17774 0.0309077 0)
(1.18742 0.0251628 0)
(1.19677 0.0173009 0)
(1.20533 0.00733527 0)
(1.21267 -0.00462385 0)
(1.21835 -0.0183359 0)
(1.22202 -0.0334918 0)
(1.22339 -0.0496937 0)
(1.22226 -0.0664891 0)
(1.21857 -0.0834039 0)
(1.21234 -0.0999744 0)
(1.2037 -0.115773 0)
(1.19285 -0.13043 0)
(1.18005 -0.143643 0)
(1.16559 -0.155181 0)
(1.14975 -0.164886 0)
(1.13285 -0.17266 0)
(1.11514 -0.178462 0)
(1.09689 -0.182289 0)
(1.07831 -0.184166 0)
(1.05958 -0.184135 0)
(1.04086 -0.182246 0)
(1.02228 -0.17854 0)
(1.00395 -0.173053 0)
(0.98596 -0.165803 0)
(0.968419 -0.156782 0)
(0.951444 -0.145956 0)
(0.935157 -0.13329 0)
(0.91968 -0.11875 0)
(0.905218 -0.102232 0)
(0.892162 -0.0835532 0)
(0.880967 -0.0626377 0)
(0.871795 -0.0398057 0)
(0.864329 -0.0158093 0)
(0.858123 0.00852171 0)
(0.853276 0.03274 0)
(0.850748 0.0568946 0)
(0.852002 0.0812919 0)
(0.858269 0.106188 0)
(0.870044 0.131686 0)
(0.88715 0.157764 0)
(0.909228 0.18419 0)
(0.936214 0.210201 0)
(0.968309 0.234218 0)
(1.0053 0.25395 0)
(1.04573 0.266698 0)
(1.08712 0.268676 0)
(1.12771 0.253384 0)
(1.16726 0.21279 0)
(1.20413 0.144147 0)
(1.23253 0.0562859 0)
(1.13854 0.0287268 0)
(1.144 0.0301405 0)
(1.15042 0.030586 0)
(1.15766 0.0298217 0)
(1.16551 0.0276276 0)
(1.17369 0.02382 0)
(1.1819 0.018267 0)
(1.18979 0.010903 0)
(1.19697 0.0017398 0)
(1.20307 -0.00912369 0)
(1.20772 -0.0214961 0)
(1.21063 -0.0351164 0)
(1.21153 -0.049653 0)
(1.21026 -0.0647273 0)
(1.20674 -0.0799381 0)
(1.20098 -0.0948872 0)
(1.19306 -0.109201 0)
(1.18314 -0.122548 0)
(1.17143 -0.134649 0)
(1.15816 -0.145284 0)
(1.14359 -0.154291 0)
(1.12798 -0.161562 0)
(1.11156 -0.167037 0)
(1.09458 -0.17069 0)
(1.07721 -0.172525 0)
(1.05966 -0.172562 0)
(1.04207 -0.170831 0)
(1.02457 -0.167361 0)
(1.00729 -0.162172 0)
(0.990331 -0.155278 0)
(0.973809 -0.146675 0)
(0.957846 -0.136337 0)
(0.942583 -0.124229 0)
(0.928163 -0.110328 0)
(0.914766 -0.0945887 0)
(0.9027 -0.0769038 0)
(0.892404 -0.0571746 0)
(0.88422 -0.0355341 0)
(0.878108 -0.012522 0)
(0.87367 0.0110373 0)
(0.870573 0.034417 0)
(0.869025 0.057298 0)
(0.869848 0.0798073 0)
(0.874126 0.10232 0)
(0.882752 0.12522 0)
(0.896255 0.148701 0)
(0.914953 0.172563 0)
(0.939151 0.195999 0)
(0.969011 0.217561 0)
(1.00399 0.235404 0)
(1.04244 0.247265 0)
(1.08245 0.249206 0)
(1.12329 0.234179 0)
(1.16479 0.194434 0)
(1.20381 0.128716 0)
(1.23298 0.0468488 0)
(1.13938 0.0246886 0)
(1.14414 0.025352 0)
(1.14969 0.0251653 0)
(1.1559 0.0239267 0)
(1.16258 0.0214541 0)
(1.16951 0.0175964 0)
(1.17643 0.0122466 0)
(1.18302 0.00535288 0)
(1.18898 -0.00307417 0)
(1.19399 -0.0129478 0)
(1.19774 -0.0241139 0)
(1.19996 -0.0363535 0)
(1.20045 -0.0493904 0)
(1.19904 -0.0629077 0)
(1.19566 -0.0765665 0)
(1.1903 -0.0900254 0)
(1.18301 -0.102959 0)
(1.17393 -0.115072 0)
(1.1632 -0.12611 0)
(1.15103 -0.135864 0)
(1.13764 -0.144175 0)
(1.12324 -0.150928 0)
(1.10804 -0.156048 0)
(1.09226 -0.159495 0)
(1.07608 -0.161253 0)
(1.05968 -0.161325 0)
(1.0432 -0.159724 0)
(1.02678 -0.156466 0)
(1.01054 -0.151562 0)
(0.994617 -0.14502 0)
(0.979111 -0.136838 0)
(0.964155 -0.126997 0)
(0.949898 -0.115468 0)
(0.9365 -0.102234 0)
(0.924136 -0.0872806 0)
(0.913053 -0.0705659 0)
(0.903623 -0.0520228 0)
(0.896247 -0.0316897 0)
(0.891117 -0.00989829 0)
(0.888049 0.0126822 0)
(0.886632 0.0352633 0)
(0.886598 0.0572685 0)
(0.888126 0.0785482 0)
(0.89185 0.0993495 0)
(0.898645 0.120095 0)
(0.909424 0.141082 0)
(0.925042 0.162195 0)
(0.946202 0.182753 0)
(0.973157 0.20162 0)
(1.00529 0.217414 0)
(1.04122 0.228067 0)
(1.0799 0.229266 0)
(1.12128 0.21368 0)
(1.16445 0.17451 0)
(1.20442 0.112272 0)
(1.23284 0.0372887 0)
(1.13961 0.021029 0)
(1.14374 0.0210598 0)
(1.1485 0.0203476 0)
(1.15379 0.018725 0)
(1.15944 0.0160417 0)
(1.16526 0.0121744 0)
(1.17103 0.00703592 0)
(1.17649 0.000585639 0)
(1.18138 -0.00716476 0)
(1.18543 -0.0161439 0)
(1.18838 -0.026224 0)
(1.19 -0.0372224 0)
(1.19011 -0.0489094 0)
(1.18857 -0.0610196 0)
(1.1853 -0.0732669 0)
(1.18029 -0.0853594 0)
(1.17356 -0.0970145 0)
(1.16522 -0.107971 0)
(1.15539 -0.117998 0)
(1.14423 -0.126901 0)
(1.13192 -0.134525 0)
(1.11865 -0.140752 0)
(1.10461 -0.1455 0)
(1.08998 -0.148715 0)
(1.07494 -0.150368 0)
(1.05965 -0.150447 0)
(1.04426 -0.148951 0)
(1.02891 -0.145886 0)
(1.01371 -0.141254 0)
(0.998804 -0.135059 0)
(0.984305 -0.127298 0)
(0.970346 -0.117959 0)
(0.957076 -0.107024 0)
(0.944664 -0.0944783 0)
(0.933287 -0.0803237 0)
(0.923161 -0.0645616 0)
(0.914584 -0.0471716 0)
(0.907934 -0.0281732 0)
(0.903519 -0.00775641 0)
(0.901392 0.0136038 0)
(0.901286 0.0352196 0)
(0.902794 0.056431 0)
(0.905672 0.0768629 0)
(0.910058 0.0965196 0)
(0.916521 0.115658 0)
(0.92597 0.134509 0)
(0.939479 0.153005 0)
(0.957993 0.170674 0)
(0.98192 0.186778 0)
(1.01089 0.200314 0)
(1.0442 0.209205 0)
(1.08166 0.208787 0)
(1.12334 0.19198 0)
(1.16693 0.153533 0)
(1.20584 0.0956141 0)
(1.23168 0.0283195 0)
(1.13931 0.0177343 0)
(1.14286 0.0172385 0)
(1.14692 0.0160965 0)
(1.15139 0.01417 0)
(1.15613 0.0113356 0)
(1.16098 0.00749333 0)
(1.16574 0.00257189 0)
(1.17021 -0.00345971 0)
(1.17416 -0.0105891 0)
(1.17737 -0.0187579 0)
(1.17961 -0.0278597 0)
(1.1807 -0.0377423 0)
(1.18048 -0.0482144 0)
(1.17882 -0.059054 0)
(1.17564 -0.0700197 0)
(1.17093 -0.0808623 0)
(1.1647 -0.0913371 0)
(1.15702 -0.101214 0)
(1.148 -0.110285 0)
(1.13776 -0.118372 0)
(1.12644 -0.125325 0)
(1.11423 -0.131029 0)
(1.10127 -0.135394 0)
(1.08775 -0.138359 0)
(1.0738 -0.139885 0)
(1.0596 -0.139948 0)
(1.04527 -0.138537 0)
(1.03096 -0.135646 0)
(1.01679 -0.131275 0)
(1.00288 -0.12542 0)
(0.989375 -0.11808 0)
(0.976394 -0.109247 0)
(0.96409 -0.0989123 0)
(0.952628 -0.0870684 0)
(0.942189 -0.0737248 0)
(0.932974 -0.0589057 0)
(0.925228 -0.0426326 0)
(0.919269 -0.02494 0)
(0.915431 -0.00595496 0)
(0.913914 0.0140088 0)
(0.914662 0.0344245 0)
(0.917368 0.054692 0)
(0.921659 0.0743372 0)
(0.927348 0.0931425 0)
(0.934638 0.111109 0)
(0.94417 0.128276 0)
(0.956892 0.144535 0)
(0.973734 0.159598 0)
(0.995224 0.173062 0)
(1.02144 0.184149 0)
(1.05245 0.190669 0)
(1.08866 0.187903 0)
(1.12961 0.169659 0)
(1.17151 0.132525 0)
(1.20701 0.0798229 0)
(1.22869 0.0206823 0)
(1.13854 0.0147879 0)
(1.14157 0.013861 0)
(1.14501 0.0123744 0)
(1.14875 0.0102146 0)
(1.15269 0.00728097 0)
(1.15668 0.00349163 0)
(1.16057 -0.00120678 0)
(1.16417 -0.00684121 0)
(1.1673 -0.0134002 0)
(1.16978 -0.020834 0)
(1.17141 -0.0290537 0)
(1.17203 -0.0379327 0)
(1.17151 -0.0473116 0)
(1.16974 -0.0570048 0)
(1.16664 -0.0668084 0)
(1.1622 -0.0765103 0)
(1.15641 -0.0858992 0)
(1.14933 -0.0947731 0)
(1.14103 -0.102947 0)
(1.13162 -0.110256 0)
(1.12123 -0.116561 0)
(1.11 -0.121748 0)
(1.09807 -0.125728 0)
(1.08558 -0.128433 0)
(1.07268 -0.129816 0)
(1.05952 -0.129846 0)
(1.04622 -0.128502 0)
(1.03293 -0.125772 0)
(1.01976 -0.121649 0)
(1.00684 -0.116129 0)
(0.994302 -0.109207 0)
(0.982277 -0.100881 0)
(0.970911 -0.0911488 0)
(0.960364 -0.0800114 0)
(0.950816 -0.0674851 0)
(0.942456 -0.0536039 0)
(0.935501 -0.0384164 0)
(0.930211 -0.0219821 0)
(0.926889 -0.00440756 0)
(0.92579 0.0140799 0)
(0.927018 0.033107 0)
(0.930449 0.0521963 0)
(0.935798 0.0708875 0)
(0.942791 0.0888362 0)
(0.951385 0.105818 0)
(0.961897 0.121646 0)
(0.974951 0.136111 0)
(0.991244 0.149008 0)
(1.01133 0.160101 0)
(1.03566 0.168659 0)
(1.06488 0.172424 0)
(1.09946 0.167057 0)
(1.1381 0.147733 0)
(1.17606 0.112759 0)
(1.2063 0.0659356 0)
(1.22301 0.0148939 0)
(1.13734 0.0121709 0)
(1.13991 0.0108981 0)
(1.14279 0.00914294 0)
(1.14589 0.0068129 0)
(1.14913 0.00382525 0)
(1.15238 0.000116292 0)
(1.15551 -0.00435718 0)
(1.15836 -0.00961616 0)
(1.16078 -0.0156496 0)
(1.16262 -0.0224152 0)
(1.16372 -0.0298386 0)
(1.16394 -0.0378143 0)
(1.16316 -0.0462096 0)
(1.16129 -0.0548689 0)
(1.15827 -0.0636203 0)
(1.15406 -0.0722835 0)
(1.14866 -0.0806764 0)
(1.14211 -0.0886226 0)
(1.13448 -0.0959574 0)
(1.12584 -0.102532 0)
(1.1163 -0.108217 0)
(1.10597 -0.112902 0)
(1.095 -0.1165 0)
(1.08349 -0.11894 0)
(1.07159 -0.120171 0)
(1.05943 -0.120154 0)
(1.04713 -0.118863 0)
(1.03482 -0.116282 0)
(1.02263 -0.112397 0)
(1.01067 -0.107204 0)
(0.999073 -0.100697 0)
(0.987975 -0.0928766 0)
(0.977514 -0.0837459 0)
(0.967846 -0.073314 0)
(0.959141 -0.0616033 0)
(0.951581 -0.0486539 0)
(0.945363 -0.0345274 0)
(0.940709 -0.0192998 0)
(0.937872 -0.00308674 0)
(0.937103 0.0139308 0)
(0.938582 0.0314787 0)
(0.942339 0.0491972 0)
(0.94825 0.0666951 0)
(0.956123 0.0835953 0)
(0.965842 0.0995381 0)
(0.977491 0.114169 0)
(0.991361 0.127167 0)
(1.00785 0.138305 0)
(1.02741 0.147342 0)
(1.05068 0.153473 0)
(1.0784 0.154528 0)
(1.1107 0.146912 0)
(1.14551 0.127306 0)
(1.178 0.0953085 0)
(1.20226 0.05456 0)
(1.21422 0.0110501 0)
(1.13575 0.00986307 0)
(1.13791 0.00832034 0)
(1.1403 0.00636329 0)
(1.14285 0.0039168 0)
(1.14548 0.00091709 0)
(1.14808 -0.00268761 0)
(1.15055 -0.00693564 0)
(1.15276 -0.0118388 0)
(1.15458 -0.0173868 0)
(1.15587 -0.0235438 0)
(1.15651 -0.0302473 0)
(1.15638 -0.0374095 0)
(1.15538 -0.0449194 0)
(1.15343 -0.0526468 0)
(1.15047 -0.060447 0)
(1.14647 -0.0681663 0)
(1.14143 -0.0756486 0)
(1.13537 -0.0827404 0)
(1.12833 -0.0892958 0)
(1.12039 -0.0951809 0)
(1.11163 -0.100277 0)
(1.10216 -0.10448 0)
(1.09208 -0.107705 0)
(1.0815 -0.109881 0)
(1.07055 -0.110954 0)
(1.05934 -0.110883 0)
(1.048 -0.109636 0)
(1.03664 -0.107192 0)
(1.02539 -0.103538 0)
(1.01436 -0.0986634 0)
(1.00367 -0.0925658 0)
(0.993467 -0.0852466 0)
(0.983876 -0.0767133 0)
(0.975046 -0.066981 0)
(0.967139 -0.0560776 0)
(0.960325 -0.0440485 0)
(0.954788 -0.0309595 0)
(0.950722 -0.0168977 0)
(0.948338 -0.00198575 0)
(0.947861 0.0136137 0)
(0.949481 0.029679 0)
(0.953314 0.0459313 0)
(0.959371 0.0620506 0)
(0.967587 0.0776798 0)
(0.977889 0.0924148 0)
(0.990259 0.10582 0)
(1.00476 0.117496 0)
(1.02155 0.127143 0)
(1.04093 0.134405 0)
(1.06344 0.138398 0)
(1.08957 0.137204 0)
(1.1189 0.128131 0)
(1.14902 0.109163 0)
(1.17567 0.0806644 0)
(1.1944 0.0457205 0)
(1.20261 0.00883734 0)
(1.13381 0.00784333 0)
(1.13562 0.00609801 0)
(1.13758 0.00399844 0)
(1.13965 0.00148435 0)
(1.14175 -0.0014923 0)
(1.1438 -0.00497738 0)
(1.1457 -0.00899773 0)
(1.14736 -0.0135619 0)
(1.14865 -0.01866 0)
(1.14948 -0.0242612 0)
(1.14973 -0.030313 0)
(1.14931 -0.0367417 0)
(1.14813 -0.0434546 0)
(1.14612 -0.0503426 0)
(1.14322 -0.0572836 0)
(1.13942 -0.0641472 0)
(1.1347 -0.0707995 0)
(1.12907 -0.0771073 0)
(1.12258 -0.0829424 0)
(1.11529 -0.088185 0)
(1.10725 -0.0927266 0)
(1.09856 -0.0964714 0)
(1.08931 -0.0993372 0)
(1.07961 -0.101256 0)
(1.06955 -0.102171 0)
(1.05925 -0.10204 0)
(1.04883 -0.10083 0)
(1.03838 -0.0985167 0)
(1.02803 -0.0950835 0)
(1.01789 -0.0905208 0)
(1.00809 -0.0848256 0)
(0.998738 -0.0780008 0)
(0.989976 -0.0700573 0)
(0.981942 -0.0610146 0)
(0.974786 -0.0509051 0)
(0.968668 -0.0397781 0)
(0.963754 -0.0277008 0)
(0.960221 -0.0147682 0)
(0.958252 -0.00109797 0)
(0.958035 0.0131497 0)
(0.95975 0.0277801 0)
(0.963534 0.0425593 0)
(0.969475 0.0572167 0)
(0.977605 0.0714299 0)
(0.987919 0.0848057 0)
(1.00038 0.0968995 0)
(1.01496 0.10728 0)
(1.03166 0.115568 0)
(1.05063 0.121294 0)
(1.07215 0.123557 0)
(1.0963 0.120797 0)
(1.12223 0.111165 0)
(1.14761 0.0935728 0)
(1.16903 0.0686903 0)
(1.18339 0.0389743 0)
(1.18909 0.00773426 0)
(1.13157 0.00609074 0)
(1.13307 0.00420208 0)
(1.13466 0.00201217 0)
(1.13632 -0.000524452 0)
(1.13797 -0.00345136 0)
(1.13954 -0.00680157 0)
(1.14096 -0.0105941 0)
(1.14214 -0.0148353 0)
(1.143 -0.0195157 0)
(1.14343 -0.0246083 0)
(1.14336 -0.0300688 0)
(1.14269 -0.0358356 0)
(1.14136 -0.0418308 0)
(1.1393 -0.0479628 0)
(1.13648 -0.0541288 0)
(1.13286 -0.0602182 0)
(1.12843 -0.0661162 0)
(1.12321 -0.0717078 0)
(1.11722 -0.0768805 0)
(1.11052 -0.081528 0)
(1.10315 -0.0855522 0)
(1.09518 -0.0888652 0)
(1.08671 -0.0913897 0)
(1.07783 -0.0930601 0)
(1.06861 -0.0938219 0)
(1.05918 -0.0936311 0)
(1.04962 -0.0924536 0)
(1.04004 -0.0902639 0)
(1.03056 -0.0870448 0)
(1.02127 -0.082786 0)
(1.01231 -0.0774847 0)
(1.00377 -0.0711454 0)
(0.995798 -0.0637809 0)
(0.988514 -0.0554142 0)
(0.982062 -0.046081 0)
(0.976587 -0.0358321 0)
(0.972244 -0.0247386 0)
(0.96919 -0.0128922 0)
(0.967587 -0.000412138 0)
(0.967597 0.0125514 0)
(0.969376 0.0258153 0)
(0.973056 0.0391692 0)
(0.978749 0.052371 0)
(0.986532 0.0651286 0)
(0.996443 0.0770818 0)
(1.00846 0.0878143 0)
(1.02253 0.0968982 0)
(1.03859 0.103909 0)
(1.05663 0.108316 0)
(1.07669 0.109289 0)
(1.09848 0.105637 0)
(1.12094 0.0961634 0)
(1.14207 0.0803481 0)
(1.15933 0.0588983 0)
(1.1706 0.0336935 0)
(1.17483 0.00716244 0)
(1.12909 0.00458445 0)
(1.1303 0.00260397 0)
(1.13158 0.000369391 0)
(1.13288 -0.00215588 0)
(1.13414 -0.00500785 0)
(1.13531 -0.00820904 0)
(1.13633 -0.0117742 0)
(1.13711 -0.0157071 0)
(1.1376 -0.0199983 0)
(1.1377 -0.0246245 0)
(1.13736 -0.0295478 0)
(1.13649 -0.0347164 0)
(1.13505 -0.040065 0)
(1.13297 -0.0455165 0)
(1.13022 -0.0509842 0)
(1.12677 -0.0563743 0)
(1.12262 -0.0615888 0)
(1.11777 -0.0665284 0)
(1.11224 -0.071095 0)
(1.10607 -0.0751948 0)
(1.09932 -0.0787399 0)
(1.09203 -0.0816501 0)
(1.08428 -0.083854 0)
(1.07616 -0.0852897 0)
(1.06774 -0.0859047 0)
(1.05911 -0.085656 0)
(1.05037 -0.0845094 0)
(1.04162 -0.0824392 0)
(1.03296 -0.0794277 0)
(1.02449 -0.0754648 0)
(1.01632 -0.0705479 0)
(1.00856 -0.0646829 0)
(1.00133 -0.057884 0)
(0.994746 -0.0501767 0)
(0.988949 -0.0415978 0)
(0.984067 -0.0322005 0)
(0.980242 -0.0220547 0)
(0.977616 -0.0112519 0)
(0.97633 9.21707e-05 0)
(0.976527 0.0118355 0)
(0.978339 0.0238061 0)
(0.981885 0.0358075 0)
(0.987269 0.0476141 0)
(0.994577 0.0589578 0)
(1.00386 0.0695137 0)
(1.0151 0.0789058 0)
(1.02825 0.0867308 0)
(1.0432 0.0925582 0)
(1.05986 0.0958634 0)
(1.07805 0.095937 0)
(1.09728 0.0919111 0)
(1.1165 0.0830358 0)
(1.13409 0.0690973 0)
(1.14819 0.0507334 0)
(1.15733 0.0293455 0)
(1.16079 0.00674029 0)
(1.12639 0.00330353 0)
(1.12737 0.00127559 0)
(1.12838 -0.000964493 0)
(1.12937 -0.00344931 0)
(1.1303 -0.00620363 0)
(1.13113 -0.00924505 0)
(1.13181 -0.0125842 0)
(1.13226 -0.0162224 0)
(1.13244 -0.0201504 0)
(1.13228 -0.0243478 0)
(1.13172 -0.0287821 0)
(1.13069 -0.0334096 0)
(1.12916 -0.0381752 0)
(1.12707 -0.0430142 0)
(1.1244 -0.0478534 0)
(1.12112 -0.0526132 0)
(1.11723 -0.05721 0)
(1.11272 -0.0615583 0)
(1.10762 -0.0655731 0)
(1.10195 -0.0691718 0)
(1.09576 -0.0722762 0)
(1.08909 -0.0748142 0)
(1.08202 -0.0767204 0)
(1.07461 -0.0779373 0)
(1.06693 -0.0784153 0)
(1.05906 -0.0781133 0)
(1.0511 -0.0769979 0)
(1.04313 -0.0750442 0)
(1.03524 -0.0722345 0)
(1.02754 -0.0685593 0)
(1.02011 -0.0640164 0)
(1.01308 -0.0586127 0)
(1.00655 -0.0523636 0)
(1.00062 -0.0452954 0)
(0.995432 -0.0374464 0)
(0.991095 -0.0288695 0)
(0.987739 -0.019634 0)
(0.98549 -0.0098301 0)
(0.984474 0.000433689 0)
(0.984816 0.0110224 0)
(0.986629 0.0217743 0)
(0.990014 0.0325048 0)
(0.99506 0.0430019 0)
(1.00184 0.0530176 0)
(1.01039 0.0622596 0)
(1.0207 0.0703916 0)
(1.03272 0.0770456 0)
(1.04632 0.0818164 0)
(1.06133 0.0842302 0)
(1.07747 0.0837134 0)
(1.09418 0.0796506 0)
(1.11052 0.0715751 0)
(1.12523 0.0594325 0)
(1.13693 0.0437491 0)
(1.14457 0.0255927 0)
(1.14759 0.00632076 0)
(1.12353 0.00222788 0)
(1.12431 0.000192326 0)
(1.12509 -0.0020222 0)
(1.12582 -0.00444004 0)
(1.12648 -0.00707906 0)
(1.12703 -0.00995255 0)
(1.12742 -0.0130676 0)
(1.1276 -0.0164239 0)
(1.12753 -0.0200122 0)
(1.12715 -0.0238145 0)
(1.12641 -0.0278029 0)
(1.12527 -0.0319402 0)
(1.12367 -0.0361801 0)
(1.1216 -0.0404678 0)
(1.11901 -0.0447417 0)
(1.1159 -0.0489343 0)
(1.11224 -0.0529743 0)
(1.10805 -0.0567884 0)
(1.10334 -0.060303 0)
(1.09813 -0.063446 0)
(1.09246 -0.0661483 0)
(1.08637 -0.0683454 0)
(1.07992 -0.0699783 0)
(1.07317 -0.070994 0)
(1.06618 -0.0713469 0)
(1.05903 -0.070998 0)
(1.05179 -0.069916 0)
(1.04455 -0.0680768 0)
(1.03739 -0.0654637 0)
(1.0304 -0.0620677 0)
(1.02369 -0.0578876 0)
(1.01734 -0.0529306 0)
(1.01145 -0.0472131 0)
(1.00614 -0.0407615 0)
(1.0015 -0.0336149 0)
(0.997662 -0.0258249 0)
(0.994724 -0.0174597 0)
(0.992806 -0.0086035 0)
(0.992018 0.000636958 0)
(0.992465 0.0101363 0)
(0.994246 0.0197445 0)
(0.997445 0.0292887 0)
(1.00213 0.0385707 0)
(1.00836 0.0473624 0)
(1.01616 0.0554003 0)
(1.0255 0.0623856 0)
(1.03632 0.0679899 0)
(1.04848 0.0718516 0)
(1.06178 0.073566 0)
(1.07589 0.0726863 0)
(1.09027 0.06878 0)
(1.10413 0.0615595 0)
(1.11648 0.0510459 0)
(1.12631 0.0376699 0)
(1.1328 0.0222497 0)
(1.13551 0.00582142 0)
(1.12056 0.00133847 0)
(1.12117 -0.000672349 0)
(1.12174 -0.00283397 0)
(1.12226 -0.0051628 0)
(1.12269 -0.00767212 0)
(1.12301 -0.0103715 0)
(1.12316 -0.0132653 0)
(1.12313 -0.0163515 0)
(1.12285 -0.0196215 0)
(1.1223 -0.023059 0)
(1.12142 -0.02664 0)
(1.12019 -0.0303328 0)
(1.11857 -0.0340981 0)
(1.11652 -0.0378898 0)
(1.11402 -0.0416557 0)
(1.11106 -0.0453387 0)
(1.10764 -0.0488782 0)
(1.10374 -0.0522113 0)
(1.09939 -0.0552747 0)
(1.09461 -0.0580055 0)
(1.08942 -0.0603434 0)
(1.08387 -0.0622311 0)
(1.07799 -0.0636156 0)
(1.07185 -0.0644493 0)
(1.0655 -0.0646902 0)
(1.05901 -0.0643026 0)
(1.05244 -0.0632571 0)
(1.04588 -0.0615315 0)
(1.03941 -0.0591101 0)
(1.03309 -0.0559849 0)
(1.02703 -0.0521553 0)
(1.02132 -0.0476291 0)
(1.01603 -0.042423 0)
(1.01128 -0.0365636 0)
(1.00715 -0.030089 0)
(1.00376 -0.02305 0)
(1.0012 -0.0155112 0)
(0.999567 -0.00755289 0)
(0.998963 0.000723615 0)
(0.99948 0.00920159 0)
(1.0012 0.0177425 0)
(1.00419 0.026186 0)
(1.00851 0.0343495 0)
(1.01419 0.0420249 0)
(1.02124 0.048976 0)
(1.02962 0.0549395 0)
(1.03926 0.0596272 0)
(1.05001 0.0627278 0)
(1.06167 0.0639081 0)
(1.07389 0.062826 0)
(1.08619 0.0591792 0)
(1.09793 0.0527949 0)
(1.10834 0.0437287 0)
(1.11663 0.0323341 0)
(1.12218 0.0192343 0)
(1.12462 0.00524167 0)
(1.11752 0.000615959 0)
(1.11798 -0.00134378 0)
(1.11839 -0.00342851 0)
(1.11872 -0.00565013 0)
(1.11897 -0.00801822 0)
(1.11909 -0.0105391 0)
(1.11906 -0.0132149 0)
(1.11884 -0.0160426 0)
(1.11841 -0.0190137 0)
(1.11772 -0.0221137 0)
(1.11675 -0.0253218 0)
(1.11545 -0.0286109 0)
(1.11381 -0.0319475 0)
(1.1118 -0.0352927 0)
(1.10941 -0.0386025 0)
(1.1066 -0.0418284 0)
(1.10339 -0.0449189 0)
(1.09978 -0.0478204 0)
(1.09576 -0.0504785 0)
(1.09137 -0.0528388 0)
(1.08663 -0.0548488 0)
(1.08156 -0.0564579 0)
(1.07622 -0.0576195 0)
(1.07064 -0.0582908 0)
(1.06488 -0.0584339 0)
(1.059 -0.0580165 0)
(1.05306 -0.0570118 0)
(1.04714 -0.0553993 0)
(1.04129 -0.0531651 0)
(1.0356 -0.0503019 0)
(1.03015 -0.0468101 0)
(1.02501 -0.0426976 0)
(1.02028 -0.0379813 0)
(1.01604 -0.0326875 0)
(1.01238 -0.0268528 0)
(1.00939 -0.0205259 0)
(1.00716 -0.0137685 0)
(1.00577 -0.0066577 0)
(1.00532 0.000715907 0)
(1.00587 0.00824204 0)
(1.00751 0.0157927 0)
(1.01027 0.0232216 0)
(1.01421 0.0303623 0)
(1.01935 0.0370275 0)
(1.02567 0.0430074 0)
(1.03313 0.0480721 0)
(1.04166 0.051973 0)
(1.05109 0.0544482 0)
(1.06122 0.055229 0)
(1.07174 0.0540568 0)
(1.08223 0.0507213 0)
(1.09217 0.0451218 0)
(1.10093 0.0373327 0)
(1.10794 0.0276385 0)
(1.11268 0.0165252 0)
(1.11486 0.0046226 0)
(1.11444 4.25203e-05 0)
(1.11477 -0.00184333 0)
(1.11504 -0.00383203 0)
(1.11523 -0.00593209 0)
(1.11532 -0.00815006 0)
(1.11529 -0.0104897 0)
(1.11511 -0.0129514 0)
(1.11475 -0.0155315 0)
(1.1142 -0.0182216 0)
(1.11341 -0.0210088 0)
(1.11236 -0.0238749 0)
(1.11104 -0.0267967 0)
(1.1094 -0.0297458 0)
(1.10745 -0.0326891 0)
(1.10515 -0.0355894 0)
(1.1025 -0.0384058 0)
(1.09949 -0.0410945 0)
(1.09614 -0.04361 0)
(1.09243 -0.0459056 0)
(1.0884 -0.0479347 0)
(1.08407 -0.0496516 0)
(1.07945 -0.0510123 0)
(1.07459 -0.0519759 0)
(1.06953 -0.0525045 0)
(1.06432 -0.0525645 0)
(1.05901 -0.0521268 0)
(1.05364 -0.0511676 0)
(1.0483 -0.0496683 0)
(1.04304 -0.0476167 0)
(1.03792 -0.0450067 0)
(1.03303 -0.0418393 0)
(1.02843 -0.0381226 0)
(1.02421 -0.0338734 0)
(1.02043 -0.0291168 0)
(1.01719 -0.0238883 0)
(1.01456 -0.0182338 0)
(1.01261 -0.0122114 0)
(1.01143 -0.00589221 0)
(1.0111 0.000638948 0)
(1.01166 0.00728117 0)
(1.01319 0.0139182 0)
(1.01572 0.0204172 0)
(1.01928 0.0266286 0)
(1.02389 0.0323856 0)
(1.02951 0.037504 0)
(1.03611 0.041785 0)
(1.04359 0.0450175 0)
(1.05181 0.046985 0)
(1.06056 0.0474731 0)
(1.06958 0.0462887 0)
(1.0785 0.043286 0)
(1.08689 0.0384103 0)
(1.09428 0.0317399 0)
(1.10019 0.0235085 0)
(1.10424 0.0140963 0)
(1.10616 0.00399608 0)
(1.11136 -0.000398729 0)
(1.11159 -0.00219201 0)
(1.11175 -0.00406931 0)
(1.11182 -0.0060365 0)
(1.11179 -0.00809773 0)
(1.11163 -0.0102548 0)
(1.11133 -0.0125069 0)
(1.11087 -0.0148496 0)
(1.11022 -0.0172752 0)
(1.10936 -0.0197719 0)
(1.10827 -0.0223239 0)
(1.10693 -0.0249111 0)
(1.10532 -0.0275093 0)
(1.10342 -0.0300907 0)
(1.10123 -0.0326236 0)
(1.09873 -0.0350735 0)
(1.09592 -0.0374035 0)
(1.0928 -0.0395747 0)
(1.08939 -0.0415475 0)
(1.08569 -0.0432819 0)
(1.08173 -0.0447387 0)
(1.07753 -0.0458799 0)
(1.07311 -0.0466696 0)
(1.06853 -0.047075 0)
(1.06382 -0.0470664 0)
(1.05902 -0.0466182 0)
(1.05419 -0.0457092 0)
(1.04938 -0.0443234 0)
(1.04465 -0.04245 0)
(1.04006 -0.0400841 0)
(1.03567 -0.0372272 0)
(1.03157 -0.0338878 0)
(1.0278 -0.030082 0)
(1.02445 -0.0258338 0)
(1.02158 -0.0211767 0)
(1.01926 -0.0161538 0)
(1.01757 -0.010819 0)
(1.01656 -0.00523773 0)
(1.01631 0.00051215 0)
(1.01686 0.0063391 0)
(1.01827 0.0121381 0)
(1.02056 0.0177902 0)
(1.02375 0.0231624 0)
(1.02785 0.0281078 0)
(1.03282 0.0324666 0)
(1.03861 0.0360689 0)
(1.04513 0.0387376 0)