/*--------------------------------*- C++ -*----------------------------------*\
  =========                 |
  \\      /  F ield         | OpenFOAM: The Open Source CFD Toolbox
   \\    /   O peration     | Website:  https://openfoam.org
    \\  /    A nd           | Version:  7
     \\/     M anipulation  |
\*---------------------------------------------------------------------------*/
FoamFile
{
    version     2.0;
    format      ascii;
    class       surfaceScalarField;
    location    "35";
    object      phi;
}
// * * * * * * * * * * * * * * * * * * * * * * * * * * * * * * * * * * * * * //

dimensions      [0 3 -1 0 0 0 0];

internalField   nonuniform List<scalar> 
3881
(
0.00472191
-0.00111226
0.00111754
0.00471663
-0.00110406
0.00110934
0.00471137
-0.0010944
0.00109967
0.00470613
-0.00108332
0.00108856
0.00470092
-0.00107086
0.00107606
0.00469577
-0.00105704
0.0010622
0.00469068
-0.00104193
0.00104702
0.00468567
-0.00102557
0.00103058
0.00468075
-0.00100802
0.00101294
0.00467594
-0.000989347
0.000994159
0.00467124
-0.000969625
0.000974317
0.00466668
-0.000948935
0.000953495
0.00466227
-0.000927375
0.000931794
0.004658
-0.000905034
0.000909303
0.00465388
-0.000882034
0.000886147
0.00464993
-0.000858464
0.000862417
0.00464614
-0.000834468
0.000838261
0.0046425
-0.000810123
0.000813755
0.00463903
-0.000785601
0.000789075
0.00463571
-0.000760942
0.000764264
0.00463253
-0.000736356
0.000739533
0.00462949
-0.000711826
0.000714865
0.00462658
-0.000687611
0.000690522
0.00462379
-0.000663606
0.0006664
0.0046211
-0.000640143
0.000642832
0.0046185
-0.000616999
0.000619592
0.00461599
-0.000594606
0.000597117
0.00461356
-0.000572583
0.00057502
0.00461118
-0.000551512
0.000553891
0.00460886
-0.000530788
0.000533111
0.00460657
-0.000511231
0.000513518
0.00460432
-0.000491899
0.000494146
0.00460209
-0.000473998
0.000476227
0.00459989
-0.000456073
0.000458273
0.00459769
-0.000439928
0.000442128
0.00459552
-0.000423364
0.000425536
0.00459333
-0.000409037
0.000411225
0.00459118
-0.000393741
0.000395895
0.00458899
-0.000381265
0.000383454
0.00458685
-0.000367102
0.00036924
0.00458466
-0.000356521
0.000358714
0.00458254
-0.000343286
0.000345402
0.00458035
-0.00033469
0.000336885
0.00457827
-0.000322119
0.000324198
0.00457608
-0.000315621
0.000317813
0.00457406
-0.000303463
0.00030548
0.00457188
-0.000299123
0.000301306
0.00456995
-0.000287214
0.000289138
0.00456779
-0.000285046
0.000287207
0.00456599
-0.000273302
0.000275098
0.00456388
-0.00027328
0.000275397
0.00456224
-0.000261805
0.000263439
0.00456021
-0.00026363
0.00026566
0.00455876
-0.00025312
0.000254571
0.00455693
-0.000255907
0.000257743
-0.000248004
0.000249339
0.00495511
-0.00110464
0.00494756
-0.00109651
0.0049401
-0.00108694
0.00493273
-0.00107595
0.00492547
-0.0010636
0.00491833
-0.00104991
0.00491133
-0.00103493
0.00490448
-0.00101872
0.00489779
-0.00100133
0.00489128
-0.000982835
0.00488496
-0.000963301
0.00487883
-0.000942809
0.00487291
-0.000921457
0.00486721
-0.000899331
0.00486173
-0.000876551
0.00485647
-0.000853203
0.00485143
-0.00082943
0.00484661
-0.000805305
0.00484201
-0.000780999
0.00483762
-0.000756549
0.00483342
-0.000732164
0.00482942
-0.000707824
0.0048256
-0.000683787
0.00482194
-0.000659949
0.00481843
-0.000636637
0.00481507
-0.000613635
0.00481183
-0.000591364
0.0048087
-0.000569457
0.00480567
-0.000548479
0.00480273
-0.000527847
0.00479985
-0.000508356
0.00479705
-0.000489097
0.00479429
-0.000471238
0.00479159
-0.000453372
0.00478891
-0.000437247
0.00478628
-0.000420735
0.00478365
-0.000406406
0.00478107
-0.000391166
0.00477847
-0.000378664
0.00477594
-0.000364571
0.00477336
-0.000353937
0.00477087
-0.0003408
0.0047683
-0.00033212
0.00476587
-0.000319686
0.00476331
-0.000313063
0.00476095
-0.000301103
0.0047584
-0.000296577
0.00475614
-0.000284955
0.00475362
-0.000282519
0.00475149
-0.000271172
0.004749
-0.000270795
0.00474703
-0.000259833
0.00474463
-0.00026123
0.00474283
-0.000251318
0.00474062
-0.0002537
-0.0002463
0.00519198
-0.00109471
0.0051822
-0.00108673
0.00517258
-0.00107732
0.00516313
-0.0010665
0.00515386
-0.00105433
0.00514479
-0.00104083
0.00513591
-0.00102606
0.00512726
-0.00101007
0.00511884
-0.000992914
0.00511067
-0.000974658
0.00510274
-0.000955379
0.00509509
-0.000935152
0.0050877
-0.000914073
0.00508059
-0.000892225
0.00507377
-0.000869728
0.00506723
-0.000846663
0.00506097
-0.000823173
0.005055
-0.000799327
0.00504929
-0.000775293
0.00504385
-0.000751108
0.00503866
-0.000726978
0.00503372
-0.000702881
0.00502901
-0.000679072
0.00502451
-0.00065545
0.00502021
-0.000632336
0.00501609
-0.000609519
0.00501214
-0.000587413
0.00500834
-0.000565662
0.00500468
-0.000544815
0.00500114
-0.000524312
0.00499771
-0.000504919
0.00499437
-0.000485765
0.00499111
-0.000467975
0.00498793
-0.000450195
0.0049848
-0.000434113
0.00498174
-0.000417677
0.0049787
-0.000403362
0.00497573
-0.000388201
0.00497275
-0.000375683
0.00496986
-0.000361682
0.00496693
-0.000350999
0.0049641
-0.000337978
0.0049612
-0.000329213
0.00495845
-0.000316935
0.00495556
-0.00031018
0.0049529
-0.000298436
0.00495003
-0.000293712
0.00494747
-0.000282395
0.00494463
-0.000279677
0.0049422
-0.00026874
0.0049394
-0.000267994
0.00493712
-0.000257552
0.0049344
-0.000258512
0.00493227
-0.000249193
0.00492975
-0.000251174
-0.000244253
0.00543187
0.00541998
0.00540832
0.00539689
0.00538571
0.00537479
0.00536414
0.00535377
0.00534369
0.00533392
0.00532447
0.00531535
0.00530656
0.00529811
0.00529
0.00528223
0.00527479
0.0052677
-0.000792231
0.00526093
-0.000768525
0.00525448
-0.000744657
0.00524833
-0.000720833
0.00524248
-0.000697028
0.00523691
-0.000673497
0.00523159
-0.000650137
0.00522652
-0.000627266
0.00522168
-0.000604678
0.00521705
-0.000582777
0.00521261
-0.000561222
0.00520833
-0.000540542
0.00520422
-0.000520203
0.00520025
-0.000500942
0.00519641
-0.000481924
0.00519266
-0.000464232
0.00518904
-0.000446567
0.00518547
-0.000430549
0.00518201
-0.000414216
0.00517858
-0.000399933
0.00517525
-0.000384872
0.00517192
-0.000372352
0.0051687
-0.000358463
0.00516544
-0.000347739
0.00516232
-0.000334852
0.00515911
-0.000326005
0.00515607
-0.000313898
0.0051529
-0.000307008
0.00514996
-0.000295497
0.00514682
-0.000290567
0.00514399
-0.000279569
0.00514087
-0.000276558
0.00513817
-0.000266042
0.0051351
-0.000264919
0.00513254
-0.000254998
0.00512955
-0.000255521
0.00512714
-0.000246779
0.00512434
-0.000248373
-0.000241899
0.00548479
0.00547702
0.0054696
0.00546254
0.00545582
0.00544943
0.00544333
0.00543753
0.00543199
0.0054267
0.00542164
0.00541678
0.00541213
0.00540763
0.0054033
0.0053991
0.00539504
0.00539107
0.00538723
0.00538344
0.00537977
0.00537611
0.00537259
0.00536903
0.00536562
0.00536214
0.00535885
0.00535542
0.00535223
0.00534884
0.00534578
0.00534242
0.00533949
0.00533618
0.00533338
0.00533016
0.00532749
0.00532445
0.000686685
-6.2994e-05
0.000752442
-6.36157e-05
0.000818614
-6.4188e-05
0.00088508
-6.47018e-05
0.000951718
-6.51457e-05
0.0010184
-6.55068e-05
0.00108501
-6.57712e-05
0.0011514
-6.59245e-05
0.00121746
-6.59532e-05
0.00128305
-6.58447e-05
0.00134806
-6.55888e-05
0.00141236
-6.51771e-05
0.00147583
-6.46054e-05
0.00153836
-6.38714e-05
0.00159986
-6.2978e-05
0.00166022
-6.19296e-05
0.00171936
-6.07362e-05
0.00177719
-5.9408e-05
0.00183366
-5.79612e-05
0.0018887
-5.64096e-05
0.00194226
-5.47741e-05
0.0019943
-5.30689e-05
0.00204481
-5.13183e-05
0.00209375
-4.95338e-05
0.00214112
-4.7742e-05
0.00218691
-4.59477e-05
0.00223113
-4.41807e-05
0.00227379
-4.2435e-05
0.00231492
-4.07457e-05
0.00235452
-3.90917e-05
0.00239265
-3.7517e-05
0.0024293
-3.59803e-05
0.00246455
-3.45416e-05
0.0024984
-3.31312e-05
0.00253093
-3.1836e-05
0.00256212
-3.05466e-05
0.0025921
-2.93924e-05
0.00262082
-2.82072e-05
0.00264842
-2.7186e-05
0.00267483
-2.60807e-05
0.00270024
-2.51829e-05
0.0027245
-2.4129e-05
0.00274789
-2.33485e-05
0.00277017
-2.2315e-05
0.00279172
-2.16528e-05
0.00281217
-2.06071e-05
0.00283204
-2.00751e-05
0.00285079
-1.89831e-05
0.00286916
-1.86049e-05
0.00288634
-1.74316e-05
0.00290334
-1.72408e-05
-1.59521e-05
0.000708329
-0.000127944
0.000773787
-0.000129074
0.000839637
-0.000130038
0.000905759
-0.000130824
0.000972031
-0.000131418
0.00103833
-0.000131804
0.00110452
-0.000131968
0.00117049
-0.000131893
0.00123611
-0.000131568
0.00130124
-0.00013098
0.00136578
-0.000130122
0.00142959
-0.000128989
0.00149257
-0.000127582
0.0015546
-0.000125904
0.00161559
-0.000123965
0.00167543
-0.000121777
0.00173406
-0.00011936
0.00179138
-0.000116731
0.00184734
-0.000113918
0.00190187
-0.000110943
0.00195493
-0.000107839
0.00200649
-0.000104626
0.00205652
-0.000101344
0.00210499
-9.80053e-05
0.0021519
-9.46554e-05
0.00219725
-9.12948e-05
0.00224104
-8.79757e-05
0.00228329
-8.468e-05
0.00232401
-8.14721e-05
0.00236323
-7.83069e-05
0.00240098
-7.52697e-05
0.00243728
-7.22772e-05
0.00247219
-6.94493e-05
0.0025057
-6.66488e-05
0.00253792
-6.40513e-05
0.00256882
-6.1442e-05
0.00259851
-5.90828e-05
0.00262695
-5.66468e-05
0.00265429
-5.45269e-05
0.00268044
-5.22336e-05
0.00270561
-5.03521e-05
0.00272964
-4.81613e-05
0.00275281
-4.65218e-05
0.00277489
-4.43859e-05
0.00279623
-4.30023e-05
0.00281649
-4.08654e-05
0.00283619
-3.9768e-05
0.00285477
-3.75655e-05
0.00287297
-3.68024e-05
0.00289
-3.44635e-05
0.00290685
-3.40976e-05
0.00292245
-3.15498e-05
0.00293811
-3.16497e-05
0.00295239
-2.88359e-05
0.00296699
-2.94353e-05
0.00298009
-2.63892e-05
0.00299367
-2.73234e-05
-2.44334e-05
0.000751021
-0.000192335
0.000815873
-0.000193926
0.000881071
-0.000195237
0.000946498
-0.000196251
0.00101203
-0.000196952
0.00107755
-0.000197324
0.00114293
-0.000197349
0.00120805
-0.000197013
0.00127279
-0.000196301
0.00133701
-0.000195206
0.00140061
-0.000193721
0.00146347
-0.000191846
0.00152547
-0.000189586
0.00158652
-0.00018695
0.00164651
-0.000183957
0.00170536
-0.000180625
0.00176298
-0.000176982
0.0018193
-0.000173056
0.00187427
-0.000168884
0.00192782
-0.000164495
0.00197992
-0.000159935
0.00203052
-0.000155231
0.00207962
-0.000150436
0.00212717
-0.000145564
0.0021732
-0.000140679
0.00221768
-0.000135776
0.00226063
-0.00013093
0.00230206
-0.000126111
0.002342
-0.000121411
0.00238046
-0.000116762
0.00241748
-0.00011229
0.00245307
-0.00010787
0.0024873
-0.00010368
0.00252017
-9.95166e-05
0.00255176
-9.5643e-05
0.00258206
-9.17404e-05
0.00261118
-8.82012e-05
0.00263907
-8.45399e-05
0.00266589
-8.13448e-05
0.00269154
-7.78878e-05
0.00271624
-7.50442e-05
0.00273982
-7.17401e-05
0.00276255
-6.9261e-05
0.00278421
-6.60457e-05
0.00280517
-6.39578e-05
0.00282506
-6.07524e-05
0.00284439
-5.9104e-05
0.00286264
-5.5814e-05
0.00288052
-5.46773e-05
0.00289725
-5.11969e-05
0.00291381
-5.06631e-05
0.00292915
-4.68826e-05
0.00294455
-4.70493e-05
0.00295859
-4.28822e-05
0.00297295
-4.3792e-05
0.00298585
-3.9288e-05
0.00299921
-4.06881e-05
-3.64273e-05
0.000813541
-0.000255889
0.00087749
-0.000257875
0.000941721
-0.000259467
0.00100612
-0.000260646
0.00107056
-0.000261396
0.00113493
-0.000261696
0.00119911
-0.00026153
0.00126298
-0.000260882
0.00132642
-0.000259741
0.00138931
-0.000258098
0.00145154
-0.000255952
0.001513
-0.000253306
0.00157359
-0.000250171
0.0016332
-0.000246561
0.00169174
-0.000242501
0.00174914
-0.000238019
0.00180531
-0.000233151
0.00186018
-0.000227932
0.00191371
-0.00022241
0.00196584
-0.000216622
0.00201653
-0.000210627
0.00206575
-0.000204454
0.00211349
-0.000198172
0.00215972
-0.000191797
0.00220445
-0.000185408
0.00224767
-0.000178998
0.0022894
-0.000172661
0.00232965
-0.000166356
0.00236844
-0.000160203
0.00240579
-0.00015411
0.00244174
-0.000148242
0.0024763
-0.000142433
0.00250954
-0.00013692
0.00254146
-0.000131434
0.00257214
-0.000126322
0.00260156
-0.000121165
0.00262984
-0.000116482
0.00265694
-0.000111633
0.00268299
-0.000107396
0.00270791
-0.000102812
0.00273191
-9.90373e-05
0.00275482
-9.46546e-05
0.00277692
-9.13644e-05
0.00279798
-8.71033e-05
0.00281836
-8.43363e-05
0.0028377
-8.00955e-05
0.00285652
-7.79174e-05
0.00287428
-7.35737e-05
0.00289168
-7.20797e-05
0.00290798
-6.74934e-05
0.00292411
-6.68019e-05
0.00293906
-6.18278e-05
0.00295407
-6.20637e-05
0.00296778
-5.65877e-05
0.00298179
-5.78009e-05
0.00299439
-5.18907e-05
0.00300744
-5.3741e-05
-4.8164e-05
0.000894155
-0.000318344
0.00095692
-0.00032064
0.00101988
-0.00032243
0.00108293
-0.000323696
0.00114596
-0.000324418
0.00120884
-0.000324577
0.00127146
-0.000324154
0.00133371
-0.000323135
0.00139548
-0.00032151
0.00145666
-0.000319272
0.00151713
-0.000316424
0.0015768
-0.000312972
0.00163556
-0.000308934
0.00169333
-0.000304329
0.00175002
-0.000299191
0.00180555
-0.000293552
0.00185986
-0.00028746
0.00191288
-0.000280955
0.00196457
-0.000274097
0.00201488
-0.00026693
0.00206377
-0.000259522
0.00211123
-0.00025191
0.00215723
-0.000244175
0.00220177
-0.000236334
0.00224484
-0.000228483
0.00228645
-0.000220608
0.00232662
-0.000212826
0.00236535
-0.000205082
0.00240267
-0.000197525
0.0024386
-0.000190037
0.00247318
-0.000182823
0.00250642
-0.000175676
0.00253839
-0.00016889
0.00256909
-0.000162131
0.00259859
-0.000155829
0.00262689
-0.000149466
0.0026541
-0.000143686
0.00268016
-0.000137696
0.00270523
-0.000132462
0.00272921
-0.000126795
0.0027523
-0.00012213
0.00277436
-0.000116713
0.00279565
-0.000112649
0.00281593
-0.000107385
0.00283556
-0.000103971
0.00285421
-9.87379e-05
0.00287234
-9.60571e-05
0.00288947
-9.07033e-05
0.00290627
-8.88728e-05
0.002922
-8.32265e-05
0.00293759
-8.23902e-05
0.00295203
-7.62731e-05
0.00296655
-7.65809e-05
0.00297982
-6.98537e-05
0.00299338
-7.13609e-05
0.0030056
-6.41112e-05
0.00301825
-6.63913e-05
-5.95689e-05
0.000990715
-0.000379451
0.00105203
-0.000381957
0.00111345
-0.000383851
0.00117487
-0.000385113
0.00123617
-0.000385722
0.00129726
-0.000385658
0.001358
-0.000384904
0.00141832
-0.000383445
0.00147808
-0.000381275
0.0015372
-0.000378388
0.00159556
-0.000374792
0.00165309
-0.000370497
0.00170968
-0.000365526
0.00176526
-0.000359905
0.00181974
-0.000353675
0.00187307
-0.000346874
0.00192517
-0.00033956
0.00197599
-0.000331779
0.00202549
-0.000323603
0.00207364
-0.000315078
0.00212041
-0.000306289
0.00216577
-0.000297273
0.00220972
-0.000288124
0.00225225
-0.000278862
0.00229336
-0.000269595
0.00233306
-0.000260307
0.00237137
-0.000251133
0.00240829
-0.000242006
0.00244387
-0.000233101
0.00247811
-0.000224276
0.00251106
-0.000215774
0.00254273
-0.000207349
0.00257319
-0.000199348
0.00260243
-0.000191374
0.00263054
-0.00018394
0.0026575
-0.000176429
0.00268342
-0.000169605
0.00270826
-0.000162531
0.00273215
-0.000156351
0.00275501
-0.000149656
0.00277702
-0.000144149
0.00279806
-0.00013775
0.00281837
-0.000132954
0.00283772
-0.000126739
0.00285646
-0.000122716
0.00287427
-0.000116542
0.0028916
-0.00011339
0.00290798
-0.000107079
0.00292404
-0.000104936
0.0029391
-9.82852e-05
0.00295403
-9.73192e-05
0.00296788
-9.01195e-05
0.0029818
-9.05022e-05
0.00299454
-8.25931e-05
0.00300756
-8.43825e-05
0.00301932
-7.58737e-05
0.00303149
-7.85588e-05
-7.0576e-05
0.00110078
-0.000438974
0.00116041
-0.000441584
0.00122004
-0.000443479
0.00127956
-0.000444638
0.00133888
-0.00044504
0.00139789
-0.000444667
0.00145648
-0.000443501
0.00151457
-0.000441531
0.00157205
-0.00043875
0.00162882
-0.000435159
0.00168479
-0.000430768
0.00173989
-0.000425591
0.00179402
-0.000419657
0.00184711
-0.000412999
0.0018991
-0.000405664
0.00194992
-0.000397698
0.00199953
-0.000389167
0.00204787
-0.000380123
0.00209492
-0.000370648
0.00214064
-0.000360795
0.00218501
-0.000350657
0.00222801
-0.000340277
0.00226965
-0.00032976
0.00230991
-0.000319125
0.00234881
-0.000308496
0.00238636
-0.000297853
0.00242257
-0.000287346
0.00245746
-0.000276898
0.00249107
-0.000266707
0.0025234
-0.000256611
0.00255451
-0.000246886
0.00258441
-0.000237248
0.00261316
-0.000228096
0.00264076
-0.000218974
0.00266729
-0.00021047
0.00269274
-0.000201876
0.0027172
-0.00019407
0.00274065
-0.000185974
0.0027632
-0.000178905
0.00278479
-0.000171244
0.00280559
-0.000164947
0.00282546
-0.000157626
0.00284466
-0.000152147
0.00286296
-0.00014504
0.00288069
-0.000140451
0.00289754
-0.000133393
0.00291396
-0.000129807
0.00292948
-0.000122597
0.00294471
-0.00012017
0.002959
-0.000112576
0.00297318
-0.000111497
0.00298635
-0.000103284
0.00299959
-0.000103744
0.00301173
-9.47331e-05
0.00302413
-9.67902e-05
0.00303538
-8.71146e-05
0.00304699
-9.0176e-05
-8.11299e-05
0.00122175
-0.000496696
0.00127946
-0.000499297
0.00133707
-0.000501085
0.00139447
-0.000502039
0.00145157
-0.00050214
0.00150827
-0.000501369
0.00156448
-0.000499711
0.0016201
-0.000497155
0.00167505
-0.000493701
0.00172924
-0.000489349
0.00178259
-0.000484115
0.00183502
-0.000478019
0.00188646
-0.000471096
0.00193684
-0.000463382
0.00198611
-0.000454934
0.00203422
-0.000445803
0.00208111
-0.000436063
0.00212676
-0.000425773
0.00217114
-0.000415024
0.00221422
-0.000403874
0.00225599
-0.000392426
0.00229643
-0.000380725
0.00233556
-0.000368889
0.00237338
-0.000356936
0.00240988
-0.000345003
0.00244509
-0.000333065
0.00247904
-0.00032129
0.00251173
-0.000309587
0.0025432
-0.000298179
0.00257347
-0.000286881
0.00260258
-0.000276001
0.00263056
-0.000265222
0.00265745
-0.000254988
0.00268326
-0.000244788
0.00270808
-0.000235282
0.00273187
-0.000225674
0.00275476
-0.000216951
0.00277668
-0.000207902
0.00279778
-0.000200006
0.00281798
-0.000191444
0.00283745
-0.000184415
0.00285606
-0.000176236
0.00287404
-0.000170126
0.00289119
-0.000162189
0.00290782
-0.00015708
0.00292363
-0.000149203
0.00293904
-0.00014522
0.00295362
-0.000137176
0.00296795
-0.000134494
0.0029814
-0.000126028
0.00299475
-0.000124852
0.00300717
-0.000115703
0.00301967
-0.000116242
0.00303115
-0.000106216
0.00304289
-0.000108525
0.00305356
-9.77843e-05
0.00306457
-0.000101189
-9.11873e-05
0.00135095
-0.000552413
0.00140655
-0.000554893
0.00146193
-0.000556467
0.00151701
-0.000557116
0.00157169
-0.000556821
0.00162588
-0.000555566
0.00167951
-0.000553337
0.00173248
-0.000550127
0.00178472
-0.000545937
0.00183614
-0.000540773
0.00188668
-0.000534655
0.00193627
-0.000527608
0.00198485
-0.000519671
0.00203235
-0.000510889
0.00207874
-0.000501323
0.00212397
-0.000491032
0.002168
-0.000480096
0.00221081
-0.000468582
0.00225238
-0.000456587
0.00229268
-0.000444176
0.00233171
-0.00043146
0.00236948
-0.000418487
0.00240597
-0.000405385
0.00244121
-0.000392172
0.0024752
-0.000378996
0.00250796
-0.000365828
0.00253952
-0.000352851
0.0025699
-0.000339963
0.00259913
-0.000327408
0.00262723
-0.00031498
0.00265424
-0.000303018
0.00268019
-0.00029117
0.00270513
-0.000279927
0.00272906
-0.000268723
0.00275207
-0.000258285
0.00277413
-0.000247735
0.00279534
-0.000238163
0.00281567
-0.000228231
0.00283524
-0.000219572
0.00285397
-0.000210178
0.00287203
-0.000202477
0.0028893
-0.000193506
0.002906
-0.000186821
0.00292193
-0.00017812
0.00293739
-0.000172539
0.00295209
-0.000163908
0.00296644
-0.000159569
0.00298003
-0.000150761
0.00299339
-0.000147853
0.00300595
-0.000138588
0.00301843
-0.000137333
0.00303005
-0.00012733
0.00304176
-0.000127948
0.00305255
-0.000117003
0.00306356
-0.000119543
0.00307363
-0.000107848
0.003084
-0.000111561
-0.000100718
0.00148577
-0.000605939
0.00153906
-0.000608189
0.00159204
-0.000609447
0.00164462
-0.000609695
0.00169672
-0.000608916
0.00174825
-0.000607095
0.00179913
-0.000604224
0.0018493
-0.000600296
0.00189868
-0.000595317
0.00194721
-0.000589297
0.00199481
-0.00058226
0.00204144
-0.000574235
0.00208704
-0.000565269
0.00213156
-0.000555412
0.00217496
-0.00054473
0.00221722
-0.000533289
0.0022583
-0.000521177
0.00229819
-0.000508465
0.00233686
-0.000495259
0.00237431
-0.000481627
0.00241054
-0.000467689
0.00244555
-0.000453496
0.00247935
-0.000439184
0.00251194
-0.00042477
0.00254336
-0.000410416
0.00257362
-0.000396084
0.00260274
-0.000381975
0.00263075
-0.000367973
0.00265769
-0.000354343
0.00268357
-0.000340858
0.00270844
-0.000327888
0.00273231
-0.000315046
0.00275525
-0.000302867
0.00277726
-0.000290732
0.00279841
-0.000279434
0.00281869
-0.000268015
0.00283819
-0.000257663
0.00285688
-0.000246918
0.00287487
-0.000237561
0.00289209
-0.000227405
0.00290871
-0.000219092
0.0029246
-0.0002094
0.00293997
-0.000202192
0.00295465
-0.000192797
0.0029689
-0.000186791
0.00298247
-0.000177477
0.00299572
-0.000172821
0.00300828
-0.000163319
0.00302064
-0.000160215
0.00303228
-0.000150228
0.00304386
-0.00014891
0.00305467
-0.000138139
0.00306556
-0.000138836
0.00307563
-0.00012707
0.0030859
-0.000129822
0.00309534
-0.000117286
0.00310505
-0.00012127
-0.000109705
0.00162371
-0.000657101
0.00167454
-0.000659019
0.00172496
-0.000659867
0.0017749
-0.000659627
0.00182426
-0.000658284
0.001873
-0.000655828
0.00192102
-0.000652251
0.00196828
-0.000647552
0.0020147
-0.00064174
0.00206023
-0.000634828
0.00210482
-0.000626846
0.00214841
-0.000617828
0.00219097
-0.000607827
0.00223245
-0.000596895
0.00227283
-0.000585108
0.00231208
-0.000572536
0.00235017
-0.000559273
0.00238711
-0.000545396
0.00242287
-0.000531018
0.00245745
-0.000516211
0.00249086
-0.000501101
0.00252311
-0.000485743
0.0025542
-0.00047028
0.00258416
-0.00045473
0.00261301
-0.000439262
0.00264076
-0.000423835
0.00266745
-0.000408662
0.00269309
-0.000393618
0.00271774
-0.000378986
0.0027414
-0.000364518
0.00276412
-0.000350612
0.00278592
-0.00033685
0.00280686
-0.000323806
0.00282695
-0.000310815
0.00284624
-0.000298727
0.00286474
-0.000286512
0.00288252
-0.000275447
0.00289956
-0.000263961
0.00291597
-0.000253971
0.00293169
-0.000243122
0.00294685
-0.000234257
0.00296137
-0.00022391
0.00297541
-0.000216235
0.00298883
-0.000206214
0.00300186
-0.000199831
0.00301429
-0.000189901
0.00302644
-0.000184968
0.00303796
-0.000174846
0.00304932
-0.000171574
0.00306004
-0.000160943
0.0030707
-0.000159577
0.00308069
-0.000148125
0.00309075
-0.000148899
0.0031001
-0.000136414
0.00310963
-0.000139353
0.00311844
-0.000126095
0.00312748
-0.00013031
-0.000118146
0.00176247
-0.000705741
0.00181069
-0.00070724
0.00185842
-0.000707594
0.00190558
-0.00070679
0.00195211
-0.000704816
0.00199795
-0.000701665
0.00204303
-0.000697333
0.0020873
-0.000691821
0.0021307
-0.000685143
0.00217319
-0.000677317
0.00221472
-0.000668376
0.00225525
-0.00065836
0.00229475
-0.000647325
0.00233319
-0.000635331
0.00237054
-0.000622458
0.00240678
-0.000608782
0.00244191
-0.000594402
0.00247591
-0.0005794
0.00250879
-0.000563895
0.00254054
-0.000547963
0.00257118
-0.000531737
0.00260071
-0.000515272
0.00262915
-0.00049872
0.00265652
-0.000482098
0.00268284
-0.000465583
0.00270813
-0.00044913
0.00273243
-0.000432965
0.00275577
-0.00041695
0.00277817
-0.000401386
0.00279966
-0.000386008
0.00282028
-0.000371238
0.00284006
-0.000356628
0.00285904
-0.00034279
0.00287724
-0.000329014
0.00289472
-0.000316204
0.00291147
-0.000303264
0.00292758
-0.000291551
0.00294301
-0.000279394
0.00295787
-0.000268832
0.00297211
-0.000257358
0.00298585
-0.000247998
0.002999
-0.000237065
0.00301174
-0.000228974
0.00302392
-0.000218393
0.00303577
-0.000211679
0.00304707
-0.000201202
0.00305813
-0.000196029
0.00306864
-0.000185357
0.00307901
-0.000181945
0.00308882
-0.000170748
0.00309859
-0.000169347
0.00310777
-0.000157303
0.00311702
-0.000158149
0.00312565
-0.000145049
0.00313445
-0.00014815
0.00314264
-0.000134289
0.00315103
-0.000138694
-0.000126052
0.00189995
-0.000751723
0.00194543
-0.000752724
0.00199035
-0.000752515
0.00203465
-0.000751086
0.00207826
-0.000748428
0.00212113
-0.000744537
0.00216321
-0.000739413
0.00220445
-0.000733062
0.00224481
-0.000725499
0.00228424
-0.000716749
0.00232271
-0.000706847
0.00236019
-0.00069584
0.00239666
-0.000683787
0.00243208
-0.000670753
0.00246644
-0.000656824
0.00249974
-0.000642079
0.00253196
-0.000626624
0.00256311
-0.000610544
0.00259318
-0.000593964
0.00262218
-0.000576962
0.00265012
-0.000559679
0.00267702
-0.00054217
0.00270289
-0.000524594
0.00272776
-0.000506966
0.00275165
-0.000489473
0.00277458
-0.000472064
0.00279659
-0.000454975
0.0028177
-0.000438059
0.00283795
-0.000421634
0.00285736
-0.000405417
0.00287597
-0.000389852
0.00289381
-0.000374465
0.00291092
-0.000359901
0.00292731
-0.000345408
0.00294305
-0.000331943
0.00295813
-0.000318344
0.00297263
-0.000306046
0.00298652
-0.000293283
0.00299989
-0.000282208
0.00301271
-0.000270174
0.00302508
-0.000260374
0.00303694
-0.000248918
0.00304842
-0.000240461
0.00305942
-0.000229384
0.00307012
-0.000222382
0.00308034
-0.000211425
0.00309036
-0.000206047
0.0030999
-0.000194895
0.00310932
-0.000191367
0.00311825
-0.00017968
0.00312716
-0.000178255
0.00313556
-0.000165707
0.00314403
-0.000166618
0.00315199
-0.000153004
0.00316008
-0.000156241
0.00316768
-0.000141895
0.00317544
-0.000146449
-0.00013345
0.00203428
-0.000794927
0.00207693
-0.000795369
0.00211895
-0.000794544
0.00216031
-0.000792444
0.00220095
-0.000789065
0.00224082
-0.000784405
0.00227987
-0.000778468
0.00231807
-0.000771264
0.00235539
-0.000762813
0.00239178
-0.000753143
0.00242723
-0.000742294
0.0024617
-0.000730314
0.00249519
-0.000717271
0.00252766
-0.000703231
0.00255912
-0.000688285
0.00258956
-0.000672516
0.00261897
-0.000656035
0.00264736
-0.000638932
0.00267473
-0.000621335
0.00270109
-0.000603325
0.00272646
-0.000585048
0.00275085
-0.000566561
0.00277429
-0.000548028
0.00279678
-0.000529462
0.00281837
-0.000511059
0.00283907
-0.000492763
0.00285891
-0.00047482
0.00287793
-0.000457074
0.00289615
-0.000439856
0.0029136
-0.000422867
0.00293032
-0.000406574
0.00294633
-0.000390477
0.00296168
-0.000375251
0.00297638
-0.000360108
0.00299049
-0.000346049
0.003004
-0.000331855
0.00301699
-0.000319032
0.00302943
-0.000305724
0.00304141
-0.000294192
0.0030529
-0.000281658
0.00306399
-0.000271468
0.00307462
-0.00025955
0.00308493
-0.000250773
0.00309481
-0.000239262
0.00310444
-0.00023201
0.00311365
-0.000220636
0.00312269
-0.000215084
0.00313131
-0.00020352
0.00313984
-0.000199898
0.00314796
-0.000187796
0.00315606
-0.000186355
0.00316374
-0.000173387
0.00317148
-0.000174355
0.0031788
-0.000160326
0.00318623
-0.000163672
0.00319329
-0.000148955
0.00320046
-0.000153618
-0.000140377
0.00216385
-0.000835259
0.00220358
-0.000835098
0.00224265
-0.000833619
0.00228103
-0.000830819
0.00231866
-0.000826697
0.00235551
-0.000821256
0.00239155
-0.000814502
0.00242673
-0.000806449
0.00246104
-0.000797121
0.00249444
-0.000786549
0.00252693
-0.000774778
0.00255847
-0.000761859
0.00258907
-0.000747863
0.0026187
-0.000732861
0.00264736
-0.000716948
0.00267505
-0.00070021
0.00270178
-0.000682763
0.00272755
-0.000664697
0.00275236
-0.000646147
0.00277623
-0.000627195
0.00279917
-0.000607992
0.00282121
-0.000588595
0.00284235
-0.000569174
0.00286263
-0.000549741
0.00288207
-0.000530498
0.00290069
-0.000511384
0.00291853
-0.000492655
0.0029356
-0.000474146
0.00295194
-0.000456201
0.00296759
-0.000438508
0.00298256
-0.000421551
0.00299689
-0.000404807
0.00301062
-0.000388981
0.00302376
-0.000373248
0.00303637
-0.000358653
0.00304844
-0.000343925
0.00306004
-0.00033063
0.00307115
-0.000316837
0.00308185
-0.000304897
0.00309212
-0.000291921
0.00310204
-0.000281388
0.00311155
-0.000269064
0.00312079
-0.000260008
0.00312964
-0.00024812
0.00313829
-0.000240654
0.00314657
-0.000228922
0.00315472
-0.000223225
0.00316251
-0.000211313
0.00317022
-0.000207613
0.00317759
-0.000195168
0.00318496
-0.000193716
0.00319198
-0.000180411
0.00319905
-0.000181425
0.0032058
-0.000167077
0.00321263
-0.000170503
0.0032192
-0.000155524
0.00322584
-0.000160257
-0.000146884
0.00228726
-0.000872652
0.00232402
-0.00087186
0.00236011
-0.000869708
0.00239549
-0.000866197
0.00243012
-0.000861328
0.00246397
-0.000855109
0.00249702
-0.000847549
0.00252923
-0.000838666
0.0025606
-0.000828486
0.0025911
-0.000817045
0.00262071
-0.00080439
0.00264943
-0.000790577
0.00267724
-0.000775679
0.00270415
-0.00075977
0.00273015
-0.000742949
0.00275525
-0.000725304
0.00277944
-0.000706955
0.00280274
-0.000687995
0.00282515
-0.000668561
0.0028467
-0.000648738
0.00286738
-0.00062868
0.00288723
-0.000608445
0.00290627
-0.000588208
0.00292451
-0.000567978
0.00294197
-0.000547964
0.00295869
-0.000528101
0.00297469
-0.000508654
0.00298999
-0.000489449
0.00300463
-0.000470842
0.00301863
-0.000452507
0.00303203
-0.000434947
0.00304484
-0.000417618
0.00305711
-0.000401249
0.00306884
-0.000384985
0.0030801
-0.000369908
0.00309087
-0.000354699
0.00310123
-0.000340984
0.00311115
-0.000326758
0.00312071
-0.000314458
0.00312988
-0.000301091
0.00313875
-0.000290258
0.00314726
-0.00027758
0.00315554
-0.000268282
0.00316349
-0.000256069
0.00317125
-0.000248421
0.00317872
-0.000236386
0.00318606
-0.000230568
0.00319311
-0.000218366
0.00320011
-0.000214606
0.00320682
-0.000201884
0.00321353
-0.000200424
0.00321998
-0.000186858
0.00322646
-0.000187906
0.00323271
-0.000173329
0.00323902
-0.000176809
0.00324516
-0.000161671
0.00325134
-0.000166436
-0.000153031
0.00240334
-0.000907068
0.00243711
-0.000905636
0.00247021
-0.00090281
0.00250261
-0.000898592
0.00253427
-0.00089299
0.00256517
-0.000886011
0.0025953
-0.000877672
0.00262462
-0.000867992
0.00265314
-0.000857
0.00268083
-0.000844735
0.00270769
-0.000831248
0.00273371
-0.000816596
0.00275888
-0.000800856
0.00278322
-0.000784105
0.00280671
-0.000766443
0.00282937
-0.000747961
0.00285119
-0.000728782
0.0028722
-0.000709
0.00289239
-0.000688757
0.00291179
-0.000668137
0.00293041
-0.000647299
0.00294827
-0.000626299
0.00296538
-0.000605318
0.00298176
-0.000584363
0.00299744
-0.000563649
0.00301245
-0.000543105
0.0030268
-0.000523006
0.00304052
-0.000503169
0.00305364
-0.000483962
0.00306618
-0.000465047
0.00307817
-0.000446941
0.00308964
-0.000429084
0.00310062
-0.000412226
0.00311111
-0.000395485
0.00312118
-0.000379975
0.00313082
-0.000364339
0.00314009
-0.000350247
0.00314897
-0.000335639
0.00315753
-0.00032302
0.00316575
-0.00030931
0.0031737
-0.000298214
0.00318135
-0.000285229
0.00318879
-0.000275722
0.00319596
-0.000263234
0.00320297
-0.000255431
0.00320972
-0.000243143
0.00321638
-0.000237224
0.0032228
-0.000224789
0.00322918
-0.000220979
0.00323534
-0.000208042
0.00324149
-0.000206575
0.00324745
-0.000192821
0.00325343
-0.00019389
0.00325927
-0.000179169
0.00326514
-0.000182672
0.00327094
-0.000167473
0.00327674
-0.000172234
-0.000158891
0.00251112
-0.000938505
0.00254193
-0.000936442
0.00257207