# Probe 0 (2 -0.5 0)
# Probe 1 (2 0.5 0)
#       Probe             0             1
#        Time
        0.005      -10.6378      -10.6378
         0.01      0.539692      0.539691
        0.015     -0.123778     -0.123778
         0.02     -0.138495     -0.138495
        0.025     -0.130476     -0.130476
         0.03     -0.118314     -0.118314
        0.035     -0.106981     -0.106981
         0.04    -0.0972604    -0.0972605
        0.045     -0.089087     -0.089087
         0.05    -0.0822002    -0.0822002
        0.055      -0.07635      -0.07635
         0.06    -0.0713234    -0.0713234
        0.065    -0.0669536    -0.0669537
         0.07     -0.063115     -0.063115
        0.075    -0.0597065    -0.0597066
         0.08    -0.0566542    -0.0566542
        0.085    -0.0539038    -0.0539038
         0.09    -0.0514029    -0.0514029
        0.095    -0.0491165    -0.0491165
          0.1    -0.0470138    -0.0470138
        0.105     -0.045075     -0.045075
         0.11    -0.0432792    -0.0432792
        0.115    -0.0416091    -0.0416091
         0.12    -0.0400477    -0.0400477
        0.125    -0.0385875    -0.0385875
         0.13    -0.0372147    -0.0372147
        0.135    -0.0359207    -0.0359207
         0.14    -0.0347014    -0.0347014
        0.145    -0.0335492    -0.0335492
         0.15    -0.0324579    -0.0324579
        0.155    -0.0314214    -0.0314214
         0.16    -0.0304356    -0.0304356
        0.165    -0.0294968    -0.0294968
         0.17    -0.0286022    -0.0286022
        0.175     -0.027743     -0.027743
         0.18    -0.0269293    -0.0269293
        0.185    -0.0261467    -0.0261467
         0.19     -0.025396     -0.025396
        0.195    -0.0246754    -0.0246755
          0.2    -0.0239833    -0.0239833
        0.205    -0.0233171    -0.0233171
         0.21    -0.0226747    -0.0226747
        0.215    -0.0220611    -0.0220611
         0.22    -0.0214688    -0.0214689
        0.225    -0.0208951    -0.0208951
         0.23    -0.0203401    -0.0203401
        0.235    -0.0198048    -0.0198048
         0.24    -0.0192872    -0.0192872
        0.245    -0.0187866    -0.0187866
         0.25    -0.0183006    -0.0183007
        0.255    -0.0178309     -0.017831
         0.26    -0.0173756    -0.0173756
        0.265     -0.016932     -0.016932
         0.27    -0.0165052    -0.0165053
        0.275    -0.0160868    -0.0160868
         0.28    -0.0156811    -0.0156811
        0.285    -0.0152869    -0.0152869
         0.29     -0.014903     -0.014903
        0.295    -0.0145288    -0.0145288
          0.3    -0.0141674    -0.0141674
        0.305    -0.0138132    -0.0138132
         0.31    -0.0134681    -0.0134681
        0.315    -0.0131313    -0.0131313
         0.32     -0.012801     -0.012801
        0.325    -0.0124834    -0.0124834
         0.33    -0.0121702    -0.0121702
        0.335    -0.0118649    -0.0118649
         0.34    -0.0115665    -0.0115665
        0.345    -0.0112741    -0.0112741
         0.35    -0.0109899      -0.01099
        0.355    -0.0107104    -0.0107104
         0.36    -0.0104374    -0.0104375
        0.365    -0.0101709    -0.0101709
         0.37   -0.00990971   -0.00990973
        0.375   -0.00965392   -0.00965393
         0.38   -0.00940326   -0.00940328
        0.385   -0.00915749   -0.00915751
         0.39   -0.00891663   -0.00891664
        0.395   -0.00868155   -0.00868157
          0.4   -0.00845115   -0.00845116
        0.405   -0.00822495   -0.00822497
         0.41   -0.00800287   -0.00800288
        0.415   -0.00778401   -0.00778402
         0.42   -0.00756988   -0.00756989
        0.425   -0.00736034   -0.00736035
         0.43   -0.00715349    -0.0071535
        0.435   -0.00695105   -0.00695106
         0.44   -0.00675224   -0.00675225
        0.445    -0.0065565   -0.00655651
         0.45   -0.00636477   -0.00636478
        0.455   -0.00617577   -0.00617578
         0.46   -0.00599002   -0.00599003
        0.465   -0.00580632   -0.00580633
         0.47   -0.00562899     -0.005629
        0.475   -0.00545367   -0.00545368
         0.48   -0.00528018   -0.00528019
        0.485    -0.0051075   -0.00510751
         0.49   -0.00494289    -0.0049429
        0.495   -0.00477779    -0.0047778
          0.5   -0.00461529    -0.0046153
        0.505    -0.0044554   -0.00445541
         0.51   -0.00429755   -0.00429756
        0.515   -0.00414354   -0.00414355
         0.52   -0.00399128   -0.00399129
        0.525    -0.0038411   -0.00384111
         0.53   -0.00369345   -0.00369346
        0.535   -0.00354786   -0.00354787
         0.54   -0.00340444   -0.00340444
        0.545   -0.00326437   -0.00326437
         0.55   -0.00312603   -0.00312604
        0.555   -0.00298918   -0.00298919
         0.56   -0.00285654   -0.00285655
        0.565   -0.00272126   -0.00272126
         0.57   -0.00259068   -0.00259068
        0.575   -0.00246207   -0.00246208
         0.58   -0.00233584   -0.00233584
        0.585   -0.00221045   -0.00221046
         0.59   -0.00208749    -0.0020875
        0.595   -0.00196602   -0.00196603
          0.6   -0.00184782   -0.00184783
        0.605   -0.00173069   -0.00173069
         0.61   -0.00161498   -0.00161499
        0.615    -0.0015003    -0.0015003
         0.62   -0.00138878   -0.00138879
        0.625   -0.00127815   -0.00127816
         0.63   -0.00116915   -0.00116916
        0.635   -0.00106184   -0.00106185
         0.64  -0.000956236   -0.00095624
        0.645  -0.000851985   -0.00085199
         0.65  -0.000749703  -0.000749709
        0.655  -0.000648885   -0.00064889
         0.66  -0.000549334   -0.00054934
        0.665  -0.000451054  -0.000451062
         0.67  -0.000351775  -0.000351783
        0.675  -0.000261384  -0.000261386
         0.68  -0.000168874  -0.000168883
        0.685  -7.72834e-05  -7.72895e-05
         0.69   1.27656e-05   1.27597e-05
        0.695    0.00010167   0.000101664
          0.7   0.000189554    0.00018955
        0.705   0.000274897   0.000274892
         0.71   0.000360047   0.000360058
        0.715   0.000441609   0.000441606
         0.72    0.00052334   0.000523337
        0.725   0.000603701   0.000603697
         0.73   0.000683037   0.000683033
        0.735   0.000761323   0.000761318
         0.74   0.000835777   0.000835772
        0.745   0.000908801   0.000908796
         0.75   0.000982857   0.000982851
        0.755     0.0010534    0.00105339
         0.76    0.00112329    0.00112329
        0.765    0.00119289    0.00119289
         0.77    0.00125992    0.00125991
        0.775    0.00132598    0.00132597
         0.78    0.00139099    0.00139098
        0.785    0.00145443    0.00145443
         0.79     0.0015162    0.00151619
        0.795    0.00157751    0.00157751
          0.8    0.00163496    0.00163495
        0.805     0.0016927    0.00169269
         0.81    0.00174912    0.00174912
        0.815    0.00180431    0.00180431
         0.82    0.00185746    0.00185745
        0.825    0.00190959    0.00190958
         0.83    0.00196035    0.00196034
        0.835    0.00200975    0.00200974
         0.84    0.00205805    0.00205804
        0.845    0.00210496    0.00210495
         0.85    0.00214843    0.00214842
        0.855    0.00219215    0.00219214
         0.86    0.00223452    0.00223451
        0.865    0.00227571     0.0022757
         0.87    0.00231535    0.00231534
        0.875    0.00235223    0.00235222
         0.88    0.00238879    0.00238878
        0.885    0.00242382    0.00242381
         0.89    0.00245767    0.00245766
        0.895    0.00249054    0.00249053
          0.9    0.00251936    0.00251935
        0.905    0.00254837    0.00254836
         0.91    0.00257554    0.00257553
        0.915    0.00259896    0.00259895
         0.92    0.00262881     0.0026288
        0.925    0.00265185    0.00265185
         0.93    0.00267331     0.0026733
        0.935    0.00269324    0.00269324
         0.94    0.00271185    0.00271185
        0.945    0.00272899    0.00272899
         0.95    0.00274547    0.00274547
        0.955    0.00275861    0.00275862
         0.96    0.00277092    0.00277092
        0.965    0.00278201      0.002782
         0.97    0.00279049    0.00279049
        0.975    0.00279793    0.00279793
         0.98    0.00280392    0.00280392
        0.985    0.00280828    0.00280828
         0.99      0.002811    0.00281099
        0.995     0.0028121     0.0028121
            1    0.00281161     0.0028116
        1.005    0.00280964    0.00280964
         1.01    0.00280651     0.0028065
        1.015    0.00279921    0.00279921
         1.02    0.00279202    0.00279201
        1.025     0.0027832     0.0027832
         1.03    0.00277319    0.00277319
        1.035    0.00275987    0.00275986
         1.04    0.00274582    0.00274581
        1.045    0.00272998    0.00272997
         1.05    0.00271236    0.00271235
        1.055    0.00269301      0.002693
         1.06    0.00267215    0.00267214
        1.065    0.00264913    0.00264913
         1.07    0.00262519    0.00262518
        1.075     0.0025967    0.00259669
         1.08    0.00256827    0.00256826
        1.085    0.00253805    0.00253804
         1.09    0.00250587    0.00250586
        1.095    0.00247164    0.00247163
          1.1    0.00243643    0.00243642
        1.105    0.00239938    0.00239937
         1.11    0.00236008    0.00236007
        1.115    0.00232072    0.00232071
         1.12    0.00227357    0.00227356
        1.125     0.0022286    0.00222858
         1.13    0.00218236    0.00218235
        1.135    0.00213204    0.00213203
         1.14    0.00208265    0.00208264
        1.145    0.00202798    0.00202797
         1.15    0.00196947    0.00196946
        1.155    0.00191234    0.00191232
         1.16    0.00185342    0.00185341
        1.165    0.00179232    0.00179231
         1.17    0.00172919    0.00172918
        1.175    0.00166393    0.00166392
         1.18    0.00159658    0.00159657
        1.185    0.00152729    0.00152729
         1.19    0.00145602    0.00145601
        1.195    0.00138295    0.00138296
          1.2    0.00130626    0.00130624
        1.205    0.00122809    0.00122808
         1.21    0.00114801    0.00114803
        1.215    0.00106732    0.00106732
         1.22   0.000981517   0.000981497
        1.225   0.000894491   0.000894501
         1.23   0.000806411   0.000806417
        1.235   0.000716263   0.000716239
         1.24   0.000623178   0.000623173
        1.245   0.000527873     0.0005279
         1.25   0.000431004   0.000431007
        1.255     0.0003317   0.000331705
         1.26   0.000231068   0.000231072
        1.265   0.000125755   0.000125719
         1.27   1.89013e-05   1.89353e-05
        1.275  -8.95296e-05  -8.95293e-05
         1.28  -0.000199101  -0.000199099
        1.285  -0.000313273  -0.000313275
         1.29  -0.000427951  -0.000427947
        1.295   -0.00054511  -0.000545108
          1.3  -0.000667065   -0.00066707
        1.305  -0.000788711   -0.00078874
         1.31   -0.00091273  -0.000912706
        1.315   -0.00103962   -0.00103962
         1.32   -0.00116874   -0.00116876
        1.325   -0.00129875   -0.00129875
         1.33   -0.00143401   -0.00143399
        1.335    -0.0015703   -0.00157032
         1.34   -0.00170868   -0.00170868
        1.345    -0.0018493   -0.00184931
         1.35   -0.00199226   -0.00199226
        1.355   -0.00213771   -0.00213771
         1.36   -0.00228543   -0.00228543
        1.365   -0.00243555   -0.00243556
         1.37   -0.00258792   -0.00258793
        1.375   -0.00274239   -0.00274239
         1.38   -0.00289916   -0.00289916
        1.385   -0.00306055   -0.00306056
         1.39   -0.00322238   -0.00322239
        1.395   -0.00338725   -0.00338725
          1.4   -0.00355489   -0.00355489
        1.405    -0.0037241   -0.00372411
         1.41   -0.00389571   -0.00389571
        1.415   -0.00406976   -0.00406976
         1.42   -0.00424556   -0.00424556
        1.425   -0.00442602   -0.00442603
         1.43     -0.004608   -0.00460801
        1.435   -0.00479399     -0.004794
         1.44   -0.00497488   -0.00497487
        1.445   -0.00516333   -0.00516335
         1.45   -0.00535457   -0.00535458
        1.455   -0.00554794   -0.00554795
         1.46   -0.00574297   -0.00574297
        1.465   -0.00594251   -0.00594252
         1.47   -0.00614294   -0.00614294
        1.475   -0.00634771   -0.00634772
         1.48   -0.00655365   -0.00655365
        1.485   -0.00676153   -0.00676153
         1.49   -0.00697181   -0.00697182
        1.495   -0.00718451   -0.00718452
          1.5   -0.00739968   -0.00739969
        1.505    -0.0076173    -0.0076173
         1.51   -0.00783734   -0.00783734
        1.515    -0.0080598    -0.0080598
         1.52    -0.0082845    -0.0082845
        1.525   -0.00851128   -0.00851128
         1.53    -0.0087411    -0.0087411
        1.535   -0.00897428   -0.00897429
         1.54   -0.00920876   -0.00920876
        1.545   -0.00944562   -0.00944562
         1.55   -0.00968478   -0.00968478
        1.555   -0.00992625   -0.00992625
         1.56    -0.0101698    -0.0101698
        1.565    -0.0104161    -0.0104161
         1.57    -0.0106666    -0.0106666
        1.575    -0.0109178    -0.0109178
         1.58    -0.0111711    -0.0111711
        1.585    -0.0114267    -0.0114267
         1.59    -0.0116846    -0.0116846
        1.595    -0.0119443    -0.0119443
          1.6    -0.0122085    -0.0122085
        1.605    -0.0124736    -0.0124736
         1.61     -0.012741     -0.012741
        1.615    -0.0130107    -0.0130107
         1.62    -0.0132828    -0.0132828
        1.625    -0.0135573    -0.0135573
         1.63    -0.0138339    -0.0138339
        1.635    -0.0141129    -0.0141129
         1.64    -0.0143941    -0.0143941
        1.645    -0.0146775    -0.0146775
         1.65    -0.0149631    -0.0149631
        1.655    -0.0152507    -0.0152507
         1.66    -0.0155392    -0.0155393
        1.665    -0.0158334    -0.0158334
         1.67    -0.0161303    -0.0161303
        1.675    -0.0164269    -0.0164269
         1.68    -0.0167256    -0.0167256
        1.685    -0.0170267    -0.0170267
         1.69    -0.0173298    -0.0173298
        1.695    -0.0176352    -0.0176352
          1.7    -0.0179427    -0.0179427
        1.705    -0.0182525    -0.0182526
         1.71    -0.0185645    -0.0185645
        1.715    -0.0188783    -0.0188783
         1.72    -0.0191931    -0.0191932
        1.725    -0.0195132    -0.0195132
         1.73     -0.019834    -0.0198341
        1.735    -0.0201576    -0.0201576
         1.74    -0.0204816    -0.0204816
        1.745     -0.020808     -0.020808
         1.75    -0.0211363    -0.0211363
        1.755    -0.0214666    -0.0214666
         1.76    -0.0217985    -0.0217985
        1.765    -0.0221334    -0.0221334
         1.77    -0.0224715    -0.0224715
        1.775    -0.0228099    -0.0228099
         1.78    -0.0231501    -0.0231501
        1.785    -0.0234921    -0.0234921
         1.79     -0.023836    -0.0238361
        1.795    -0.0241809    -0.0241809
          1.8    -0.0245314    -0.0245314
        1.805    -0.0248812    -0.0248812
         1.81    -0.0252328    -0.0252328
        1.815    -0.0255864    -0.0255864
         1.82    -0.0259417    -0.0259417
        1.825    -0.0262989    -0.0262989
         1.83    -0.0266579    -0.0266579
        1.835    -0.0270186    -0.0270187
         1.84    -0.0273811    -0.0273811
        1.845     -0.027745     -0.027745
         1.85    -0.0281103    -0.0281104
        1.855    -0.0284767    -0.0284767
         1.86    -0.0288485    -0.0288485
        1.865      -0.02922      -0.02922
         1.87    -0.0295967    -0.0295967
        1.875    -0.0299723    -0.0299723
         1.88    -0.0303479    -0.0303479
        1.885    -0.0307253    -0.0307253
         1.89    -0.0311045    -0.0311045
        1.895    -0.0314854    -0.0314854
          1.9    -0.0318678    -0.0318678
        1.905    -0.0322519    -0.0322519
         1.91    -0.0326374    -0.0326374
        1.915    -0.0330243    -0.0330244
         1.92    -0.0334128    -0.0334128
        1.925    -0.0338033    -0.0338033
         1.93    -0.0341956    -0.0341957
        1.935    -0.0345887    -0.0345887
         1.94    -0.0349832    -0.0349832
        1.945     -0.035379     -0.035379
         1.95    -0.0357763    -0.0357763
        1.955    -0.0361749    -0.0361749
         1.96    -0.0365748    -0.0365748
        1.965    -0.0369759    -0.0369759
         1.97    -0.0373777    -0.0373777
        1.975     -0.037782     -0.037782
         1.98    -0.0381895    -0.0381895
        1.985    -0.0385969    -0.0385969
         1.99    -0.0390051    -0.0390051
        1.995    -0.0394143    -0.0394143
            2    -0.0398252    -0.0398252
        2.005    -0.0402365    -0.0402365
         2.01    -0.0406491    -0.0406491
        2.015    -0.0410629    -0.0410629
         2.02    -0.0414779    -0.0414779
        2.025     -0.041894     -0.041894
         2.03     -0.042311     -0.042311
        2.035    -0.0427301    -0.0427302
         2.04    -0.0431497    -0.0431497
        2.045    -0.0435702    -0.0435702
         2.05    -0.0439918    -0.0439918
        2.055    -0.0444144    -0.0444144
         2.06    -0.0448381    -0.0448381
        2.065    -0.0452626    -0.0452626
         2.07     -0.045688     -0.045688
        2.075    -0.0461136    -0.0461136
         2.08    -0.0465422    -0.0465422
        2.085    -0.0469723    -0.0469723
         2.09    -0.0474015    -0.0474015
        2.095    -0.0478315    -0.0478315
          2.1    -0.0482625    -0.0482625
        2.105    -0.0486943    -0.0486943
         2.11    -0.0491269    -0.0491269
        2.115    -0.0495599    -0.0495599
         2.12    -0.0499949    -0.0499949
        2.125    -0.0504303    -0.0504303
         2.13    -0.0508674    -0.0508674
        2.135    -0.0513043    -0.0513043
         2.14    -0.0517414    -0.0517414
        2.145    -0.0521793    -0.0521793
         2.15     -0.052618     -0.052618
        2.155    -0.0530573    -0.0530573
         2.16    -0.0534973    -0.0534974
        2.165     -0.053938     -0.053938
         2.17     -0.054379     -0.054379
        2.175    -0.0548211    -0.0548211
         2.18    -0.0552627    -0.0552627
        2.185     -0.055707     -0.055707
         2.19    -0.0561519    -0.0561519
        2.195     -0.056596     -0.056596
          2.2    -0.0570405    -0.0570405
        2.205    -0.0574855    -0.0574855
         2.21    -0.0579311    -0.0579311
        2.215    -0.0583774    -0.0583774
         2.22    -0.0588239     -0.058824
        2.225    -0.0592709     -0.059271
         2.23    -0.0597183    -0.0597183
        2.235    -0.0601661    -0.0601661
         2.24    -0.0606142    -0.0606143
        2.245    -0.0610629    -0.0610629
         2.25    -0.0615117    -0.0615117
        2.255    -0.0619606    -0.0619607
         2.26    -0.0624095    -0.0624095
        2.265      -0.06286      -0.06286
         2.27     -0.063312     -0.063312
        2.275    -0.0637633    -0.0637633
         2.28    -0.0642135    -0.0642135
        2.285    -0.0646635    -0.0646635
         2.29    -0.0651158    -0.0651158
        2.295    -0.0655685    -0.0655686
          2.3    -0.0660202    -0.0660202
        2.305    -0.0664723    -0.0664723
         2.31    -0.0669254    -0.0669254
        2.315    -0.0673741    -0.0673741
         2.32    -0.0678251    -0.0678251
        2.325    -0.0682777    -0.0682777
         2.33    -0.0687303    -0.0687303
        2.335     -0.069183     -0.069183
         2.34    -0.0696357    -0.0696358
        2.345    -0.0700885    -0.0700885
         2.35    -0.0705412    -0.0705412
        2.355    -0.0709939    -0.0709939
         2.36    -0.0714465    -0.0714465
        2.365    -0.0718998    -0.0718998
         2.37    -0.0723526    -0.0723526
        2.375    -0.0728049    -0.0728049
         2.38    -0.0732578    -0.0732578
        2.385    -0.0737101    -0.0737101
         2.39    -0.0741619    -0.0741619
        2.395    -0.0746156    -0.0746156
          2.4    -0.0750691    -0.0750691
        2.405     -0.075521     -0.075521
         2.41    -0.0759725    -0.0759725
        2.415    -0.0764254    -0.0764254
         2.42    -0.0768775    -0.0768775
        2.425    -0.0773302    -0.0773303
         2.43    -0.0777815    -0.0777816
        2.435    -0.0782325    -0.0782325
         2.44    -0.0786838    -0.0786838
        2.445    -0.0791346    -0.0791346
         2.45    -0.0795853    -0.0795853
        2.455    -0.0800357    -0.0800358
         2.46    -0.0804859    -0.0804859
        2.465     -0.080936     -0.080936
         2.47    -0.0813857    -0.0813857
        2.475    -0.0818351    -0.0818351
         2.48    -0.0822842    -0.0822842
        2.485    -0.0827329    -0.0827329
         2.49     -0.083181    -0.0831811
        2.495    -0.0836289    -0.0836289
          2.5    -0.0840782    -0.0840782
        2.505    -0.0845261    -0.0845261
         2.51     -0.084973     -0.084973
        2.515    -0.0854193    -0.0854193
         2.52    -0.0858657    -0.0858657
        2.525    -0.0863118    -0.0863118
         2.53    -0.0867574    -0.0867574
        2.535    -0.0872025    -0.0872026
         2.54    -0.0876473    -0.0876473
        2.545    -0.0880915    -0.0880915
         2.55    -0.0885353    -0.0885353
        2.555    -0.0889786    -0.0889786
         2.56    -0.0894213    -0.0894214
        2.565    -0.0898634    -0.0898635
         2.57    -0.0903054    -0.0903054
        2.575    -0.0907475    -0.0907475
         2.58    -0.0911891    -0.0911891
        2.585    -0.0916298    -0.0916298
         2.59    -0.0920693    -0.0920693
        2.595    -0.0925078    -0.0925078
          2.6    -0.0929471    -0.0929471
        2.605    -0.0933864    -0.0933864
         2.61    -0.0938237    -0.0938237
        2.615    -0.0942611    -0.0942611
         2.62    -0.0946975    -0.0946975
        2.625    -0.0951333    -0.0951333
         2.63    -0.0955685    -0.0955685
        2.635    -0.0960032    -0.0960032
         2.64    -0.0964373    -0.0964373
        2.645    -0.0968708    -0.0968708
         2.65    -0.0973037    -0.0973037
        2.655    -0.0977359    -0.0977359
         2.66    -0.0981674    -0.0981674
        2.665    -0.0985982    -0.0985983
         2.67    -0.0990284    -0.0990284
        2.675    -0.0994579    -0.0994579
         2.68    -0.0998867    -0.0998867
        2.685     -0.100315     -0.100315
         2.69     -0.100742     -0.100742
        2.695     -0.101169     -0.101169
          2.7     -0.101595     -0.101595
        2.705     -0.102021     -0.102021
         2.71     -0.102446     -0.102446
        2.715      -0.10287      -0.10287
         2.72     -0.103293     -0.103293
        2.725     -0.103715     -0.103715
         2.73     -0.104136     -0.104136
        2.735     -0.104557     -0.104557
         2.74     -0.104978     -0.104978
        2.745     -0.105398     -0.105398
         2.75     -0.105817     -0.105817
        2.755     -0.106234     -0.106234
         2.76     -0.106649     -0.106649
        2.765     -0.107068     -0.107068
         2.77     -0.107484     -0.107484
        2.775     -0.107898     -0.107898
         2.78     -0.108312     -0.108312
        2.785     -0.108724     -0.108724
         2.79     -0.109136     -0.109136
        2.795     -0.109547     -0.109548
          2.8     -0.109957     -0.109957
        2.805     -0.110367     -0.110367
         2.81     -0.110777     -0.110777
        2.815     -0.111185     -0.111185
         2.82     -0.111592     -0.111592
        2.825     -0.111998     -0.111998
         2.83     -0.112403     -0.112403
        2.835     -0.112807     -0.112807
         2.84     -0.113211     -0.113211
        2.845     -0.113614     -0.113614
         2.85     -0.114015     -0.114015
        2.855     -0.114416     -0.114416
         2.86     -0.114816     -0.114816
        2.865     -0.115216     -0.115217
         2.87     -0.115615     -0.115615
        2.875     -0.116012     -0.116012
         2.88     -0.116408     -0.116408
        2.885     -0.116804     -0.116804
         2.89     -0.117198     -0.117198
        2.895     -0.117591     -0.117592
          2.9     -0.117984     -0.117984
        2.905     -0.118375     -0.118375
         2.91     -0.118766     -0.118766
        2.915     -0.119158     -0.119158
         2.92     -0.119547     -0.119547
        2.925     -0.119936     -0.119936
         2.93     -0.120323     -0.120323
        2.935     -0.120709     -0.120709
         2.94     -0.121094     -0.121094
        2.945     -0.121478     -0.121478
         2.95      -0.12186      -0.12186
        2.955     -0.122242     -0.122242
         2.96     -0.122625     -0.122625
        2.965     -0.123005     -0.123005
         2.97     -0.123385     -0.123385
        2.975     -0.123763     -0.123763
         2.98      -0.12414      -0.12414
        2.985     -0.124517     -0.124517
         2.99     -0.124892     -0.124892
        2.995     -0.125266     -0.125267
            3      -0.12564      -0.12564
        3.005     -0.126012     -0.126012
         3.01     -0.126384     -0.126384
        3.015     -0.126754     -0.126754
         3.02     -0.127125     -0.127125
        3.025     -0.127493     -0.127493
         3.03     -0.127861     -0.127861
        3.035     -0.128227     -0.128227
         3.04     -0.128593     -0.128593
        3.045     -0.128957     -0.128957
         3.05     -0.129321     -0.129321
        3.055     -0.129683     -0.129683
         3.06     -0.130044     -0.130044
        3.065     -0.130405     -0.130405
         3.07     -0.130764     -0.130764
        3.075     -0.131123     -0.131123
         3.08      -0.13148      -0.13148
        3.085     -0.131836     -0.131836
         3.09     -0.132191     -0.132192
        3.095     -0.132546     -0.132546
          3.1     -0.132899     -0.132899
        3.105     -0.133251     -0.133251
         3.11     -0.133603     -0.133603
        3.115     -0.133953     -0.133953
         3.12     -0.134302     -0.134302
        3.125     -0.134651     -0.134651
         3.13     -0.134998     -0.134999
        3.135     -0.135345     -0.135345
         3.14      -0.13569      -0.13569
        3.145     -0.136034     -0.136034
         3.15     -0.136377     -0.136377
        3.155     -0.136718     -0.136719
         3.16     -0.137059     -0.137059
        3.165     -0.137399     -0.137399
         3.17     -0.137738     -0.137738
        3.175     -0.138076     -0.138076
         3.18     -0.138412     -0.138412
        3.185     -0.138748     -0.138748
         3.19     -0.139083     -0.139083
        3.195     -0.139416     -0.139416
          3.2     -0.139749     -0.139749
        3.205      -0.14008      -0.14008
         3.21     -0.140412     -0.140412
        3.215     -0.140741     -0.140741
         3.22      -0.14107      -0.14107
        3.225     -0.141398     -0.141398
         3.23     -0.141724     -0.141724
        3.235      -0.14205     -0.142051
         3.24     -0.142375     -0.142375
        3.245     -0.142698     -0.142698
         3.25      -0.14302      -0.14302
        3.255     -0.143341     -0.143341
         3.26     -0.143661     -0.143661
        3.265     -0.143981     -0.143981
         3.27     -0.144299     -0.144299
        3.275     -0.144616     -0.144616
         3.28     -0.144932     -0.144932
        3.285     -0.145246     -0.145247
         3.29      -0.14556     -0.145561
        3.295     -0.145873     -0.145873
          3.3     -0.146185     -0.146185
        3.305     -0.146496     -0.146496
         3.31     -0.146806     -0.146806
        3.315     -0.147114     -0.147114
         3.32     -0.147422     -0.147422
        3.325     -0.147729     -0.147729
         3.33     -0.148034     -0.148034
        3.335     -0.148339     -0.148339
         3.34     -0.148642     -0.148642
        3.345     -0.148945     -0.148945
         3.35     -0.149247     -0.149247
        3.355     -0.149547     -0.149547
         3.36     -0.149847     -0.149847
        3.365     -0.150146     -0.150146
         3.37     -0.150443     -0.150443
        3.375      -0.15074      -0.15074
         3.38     -0.151035     -0.151035
        3.385     -0.151329     -0.151329
         3.39     -0.151622     -0.151622
        3.395     -0.151915     -0.151915
          3.4     -0.152206     -0.152206
        3.405     -0.152497     -0.152497
         3.41     -0.152786     -0.152786
        3.415     -0.153074     -0.153074
         3.42     -0.153361     -0.153361
        3.425     -0.153647     -0.153647
         3.43     -0.153932     -0.153933
        3.435     -0.154217     -0.154217
         3.44     -0.154499     -0.154499
        3.445     -0.154782     -0.154782
         3.45     -0.155063     -0.155063
        3.455     -0.155343     -0.155343
         3.46     -0.155622     -0.155623
        3.465       -0.1559       -0.1559
         3.47     -0.156178     -0.156178
        3.475     -0.156454     -0.156454
         3.48     -0.156729     -0.156729
        3.485     -0.157003     -0.157003
         3.49     -0.157276     -0.157276
        3.495     -0.157548     -0.157548
          3.5     -0.157819     -0.157819
        3.505      -0.15809      -0.15809
         3.51     -0.158359     -0.158359
        3.515     -0.158627     -0.158627
         3.52     -0.158894     -0.158894
        3.525      -0.15916      -0.15916
         3.53     -0.159426     -0.159426
        3.535      -0.15969      -0.15969
         3.54     -0.159953     -0.159953
        3.545     -0.160215     -0.160216
         3.55     -0.160477     -0.160477
        3.555     -0.160737     -0.160737