# Probe 0 (2 -0.5 0)
# Probe 1 (2 0.5 0)
#       Probe             0             1
#        Time
        0.005             (0.948612 0.044562 -4.88877e-18)             (0.948612 -0.044562 4.88877e-18)
         0.01             (0.951391 0.0352971 2.52952e-19)             (0.951391 -0.0352971 -2.52952e-19)
        0.015             (0.950952 0.0346028 -5.80936e-20)             (0.950952 -0.0346028 5.80936e-20)
         0.02             (0.950452 0.0343784 -6.45708e-20)             (0.950452 -0.0343784 6.45708e-20)
        0.025             (0.949898 0.0343907 -6.06454e-20)             (0.949898 -0.0343907 6.06454e-20)
         0.03             (0.94933 0.0345266 -5.48839e-20)             (0.94933 -0.0345266 5.48839e-20)
        0.035             (0.94876 0.0347357 -4.95493e-20)             (0.94876 -0.0347357 4.95493e-20)
         0.04             (0.948194 0.0349905 -4.49885e-20)             (0.948194 -0.0349905 4.49885e-20)
        0.045             (0.947634 0.0352748 -4.11625e-20)             (0.947634 -0.0352748 4.11625e-20)
         0.05             (0.947081 0.0355782 -3.79451e-20)             (0.947081 -0.0355782 3.79451e-20)
        0.055             (0.946536 0.0358941 -3.5217e-20)             (0.946536 -0.0358941 3.5217e-20)
         0.06             (0.945999 0.0362178 -3.28771e-20)             (0.945999 -0.0362178 3.28771e-20)
        0.065             (0.94547 0.0365462 -3.08462e-20)             (0.94547 -0.0365462 3.08462e-20)
         0.07             (0.94495 0.0368773 -2.90648e-20)             (0.94495 -0.0368773 2.90648e-20)
        0.075             (0.944437 0.0372096 -2.74851e-20)             (0.944437 -0.0372096 2.74851e-20)
         0.08             (0.943932 0.0375421 -2.60721e-20)             (0.943932 -0.0375421 2.60721e-20)
        0.085             (0.943434 0.0378741 -2.48001e-20)             (0.943434 -0.0378741 2.48001e-20)
         0.09             (0.942942 0.0382053 -2.36446e-20)             (0.942942 -0.0382053 2.36446e-20)
        0.095             (0.942457 0.0385355 -2.2589e-20)             (0.942457 -0.0385355 2.2589e-20)
          0.1             (0.941978 0.0388644 -2.16188e-20)             (0.941978 -0.0388644 2.16188e-20)
        0.105             (0.941504 0.0391921 -2.07247e-20)             (0.941504 -0.0391921 2.07247e-20)
         0.11             (0.941036 0.0395186 -1.9897e-20)             (0.941036 -0.0395186 1.9897e-20)
        0.115             (0.940572 0.0398439 -1.91274e-20)             (0.940572 -0.0398439 1.91274e-20)
         0.12             (0.940113 0.0401681 -1.84082e-20)             (0.940113 -0.0401681 1.84082e-20)
        0.125             (0.939658 0.0404913 -1.77357e-20)             (0.939658 -0.0404913 1.77357e-20)
         0.13             (0.939206 0.0408135 -1.71037e-20)             (0.939206 -0.0408135 1.71037e-20)
        0.135             (0.938759 0.041135 -1.6508e-20)             (0.938759 -0.041135 1.6508e-20)
         0.14             (0.938314 0.0414557 -1.59467e-20)             (0.938314 -0.0414557 1.59467e-20)
        0.145             (0.937873 0.0417758 -1.54164e-20)             (0.937873 -0.0417758 1.54164e-20)
         0.15             (0.937434 0.0420954 -1.49142e-20)             (0.937434 -0.0420954 1.49142e-20)
        0.155             (0.936999 0.0424146 -1.44372e-20)             (0.936999 -0.0424146 1.44372e-20)
         0.16             (0.936565 0.0427335 -1.39835e-20)             (0.936565 -0.0427335 1.39835e-20)
        0.165             (0.936134 0.0430521 -1.35514e-20)             (0.936134 -0.0430521 1.35514e-20)
         0.17             (0.935705 0.0433706 -1.31397e-20)             (0.935705 -0.0433706 1.31397e-20)
        0.175             (0.935277 0.0436889 -1.27443e-20)             (0.935277 -0.0436889 1.27443e-20)
         0.18             (0.934852 0.0440073 -1.23698e-20)             (0.934852 -0.0440073 1.23698e-20)
        0.185             (0.934428 0.0443257 -1.20096e-20)             (0.934428 -0.0443257 1.20096e-20)
         0.19             (0.934005 0.0446442 -1.1664e-20)             (0.934005 -0.0446442 1.1664e-20)
        0.195             (0.933584 0.0449629 -1.13323e-20)             (0.933584 -0.0449628 1.13323e-20)
          0.2             (0.933164 0.0452817 -1.10136e-20)             (0.933164 -0.0452817 1.10136e-20)
        0.205             (0.932745 0.0456009 -1.07069e-20)             (0.932745 -0.0456009 1.07069e-20)
         0.21             (0.932327 0.0459204 -1.0411e-20)             (0.932327 -0.0459204 1.04111e-20)
        0.215             (0.93191 0.0462403 -1.01285e-20)             (0.93191 -0.0462403 1.01285e-20)
         0.22             (0.931494 0.0465606 -9.85573e-21)             (0.931494 -0.0465605 9.85574e-21)
        0.225             (0.931078 0.0468813 -9.59145e-21)             (0.931078 -0.0468813 9.59146e-21)
         0.23             (0.930663 0.0472025 -9.33579e-21)             (0.930663 -0.0472025 9.3358e-21)
        0.235             (0.930249 0.0475243 -9.08916e-21)             (0.930249 -0.0475243 9.08917e-21)
         0.24             (0.929835 0.0478466 -8.85065e-21)             (0.929835 -0.0478466 8.85065e-21)
        0.245             (0.929421 0.0481695 -8.61993e-21)             (0.929421 -0.0481695 8.61994e-21)
         0.25             (0.929008 0.048493 -8.39598e-21)             (0.929008 -0.048493 8.39598e-21)
        0.255             (0.928595 0.0488172 -8.17946e-21)             (0.928595 -0.0488172 8.17947e-21)
         0.26             (0.928182 0.049142 -7.96952e-21)             (0.928182 -0.049142 7.96953e-21)
        0.265             (0.927769 0.0494676 -7.76499e-21)             (0.927769 -0.0494676 7.765e-21)
         0.27             (0.927357 0.0497939 -7.56821e-21)             (0.927357 -0.0497939 7.56822e-21)
        0.275             (0.926944 0.0501209 -7.37522e-21)             (0.926944 -0.0501209 7.37523e-21)
         0.28             (0.926531 0.0504488 -7.18806e-21)             (0.926531 -0.0504487 7.18807e-21)
        0.285             (0.926118 0.0507774 -7.00621e-21)             (0.926118 -0.0507774 7.00622e-21)
         0.29             (0.925705 0.0511069 -6.82907e-21)             (0.925705 -0.0511068 6.82907e-21)
        0.295             (0.925292 0.0514372 -6.65637e-21)             (0.925292 -0.0514372 6.65638e-21)
          0.3             (0.924879 0.0517684 -6.48953e-21)             (0.924879 -0.0517683 6.48954e-21)
        0.305             (0.924465 0.0521004 -6.32602e-21)             (0.924465 -0.0521004 6.32603e-21)
         0.31             (0.924051 0.0524334 -6.16669e-21)             (0.924051 -0.0524334 6.1667e-21)
        0.315             (0.923637 0.0527674 -6.01115e-21)             (0.923637 -0.0527674 6.01116e-21)
         0.32             (0.923222 0.0531023 -5.85859e-21)             (0.923222 -0.0531023 5.85859e-21)
        0.325             (0.922807 0.0534382 -5.71184e-21)             (0.922807 -0.0534381 5.71184e-21)
         0.33             (0.922392 0.053775 -5.56711e-21)             (0.922392 -0.053775 5.56712e-21)
        0.335             (0.921976 0.054113 -5.42601e-21)             (0.921976 -0.054113 5.42602e-21)
         0.34             (0.92156 0.0544519 -5.28808e-21)             (0.92156 -0.0544519 5.28809e-21)
        0.345             (0.921143 0.054792 -5.1529e-21)             (0.921143 -0.0547919 5.15291e-21)
         0.35             (0.920725 0.0551331 -5.02151e-21)             (0.920725 -0.0551331 5.02152e-21)
        0.355             (0.920307 0.0554753 -4.8922e-21)             (0.920307 -0.0554753 4.8922e-21)
         0.36             (0.919889 0.0558187 -4.76593e-21)             (0.919889 -0.0558187 4.76594e-21)
        0.365             (0.919469 0.0561632 -4.64261e-21)             (0.919469 -0.0561632 4.64262e-21)
         0.37             (0.91905 0.056509 -4.52171e-21)             (0.919049 -0.056509 4.52172e-21)
        0.375             (0.918629 0.0568559 -4.40329e-21)             (0.918629 -0.0568559 4.4033e-21)
         0.38             (0.918208 0.0572041 -4.28723e-21)             (0.918208 -0.0572041 4.28724e-21)
        0.385             (0.917786 0.0575535 -4.1734e-21)             (0.917786 -0.0575535 4.17341e-21)
         0.39             (0.917363 0.0579043 -4.06182e-21)             (0.917363 -0.0579043 4.06183e-21)
        0.395             (0.91694 0.0582563 -3.95289e-21)             (0.91694 -0.0582563 3.9529e-21)
          0.4             (0.916516 0.0586097 -3.84609e-21)             (0.916516 -0.0586097 3.8461e-21)
        0.405             (0.916091 0.0589645 -3.74123e-21)             (0.916091 -0.0589644 3.74124e-21)
         0.41             (0.915665 0.0593206 -3.63824e-21)             (0.915665 -0.0593206 3.63825e-21)
        0.415             (0.915238 0.0596782 -3.53672e-21)             (0.915238 -0.0596782 3.53673e-21)
         0.42             (0.914811 0.0600372 -3.43737e-21)             (0.914811 -0.0600372 3.43737e-21)
        0.425             (0.914383 0.0603977 -3.34011e-21)             (0.914383 -0.0603977 3.34012e-21)
         0.43             (0.913954 0.0607597 -3.24409e-21)             (0.913954 -0.0607597 3.24409e-21)
        0.435             (0.913524 0.0611232 -3.15007e-21)             (0.913524 -0.0611232 3.15008e-21)
         0.44             (0.913093 0.0614883 -3.05772e-21)             (0.913093 -0.0614883 3.05772e-21)
        0.445             (0.912661 0.061855 -2.96676e-21)             (0.912661 -0.061855 2.96677e-21)
         0.45             (0.912229 0.0622234 -2.87764e-21)             (0.912229 -0.0622234 2.87765e-21)
        0.455             (0.911795 0.0625934 -2.78976e-21)             (0.911795 -0.0625934 2.78977e-21)
         0.46             (0.911361 0.0629651 -2.70337e-21)             (0.911361 -0.062965 2.70337e-21)
        0.465             (0.910925 0.0633384 -2.6179e-21)             (0.910925 -0.0633384 2.6179e-21)
         0.47             (0.910489 0.0637136 -2.53535e-21)             (0.910489 -0.0637136 2.53536e-21)
        0.475             (0.910051 0.0640905 -2.45372e-21)             (0.910051 -0.0640905 2.45372e-21)
         0.48             (0.909613 0.0644693 -2.37291e-21)             (0.909613 -0.0644693 2.37291e-21)
        0.485             (0.909174 0.0648499 -2.29246e-21)             (0.909174 -0.0648499 2.29246e-21)
         0.49             (0.908733 0.0652324 -2.21571e-21)             (0.908733 -0.0652323 2.21571e-21)
        0.495             (0.908292 0.0656168 -2.13872e-21)             (0.908292 -0.0656167 2.13872e-21)
          0.5             (0.90785 0.0660031 -2.06291e-21)             (0.90785 -0.0660031 2.06292e-21)
        0.505             (0.907406 0.0663914 -1.98829e-21)             (0.907406 -0.0663914 1.9883e-21)
         0.51             (0.906962 0.0667817 -1.91459e-21)             (0.906962 -0.0667817 1.9146e-21)
        0.515             (0.906516 0.0671741 -1.84265e-21)             (0.906516 -0.0671741 1.84266e-21)
         0.52             (0.90607 0.0675686 -1.7715e-21)             (0.90607 -0.0675685 1.7715e-21)
        0.525             (0.905622 0.0679651 -1.70128e-21)             (0.905622 -0.0679651 1.70129e-21)
         0.53             (0.905174 0.0683638 -1.63222e-21)             (0.905174 -0.0683638 1.63223e-21)
        0.535             (0.904724 0.0687647 -1.56409e-21)             (0.904724 -0.0687647 1.5641e-21)
         0.54             (0.904273 0.0691678 -1.49695e-21)             (0.904273 -0.0691677 1.49695e-21)
        0.545             (0.903821 0.0695731 -1.43132e-21)             (0.903821 -0.0695731 1.43133e-21)
         0.55             (0.903368 0.0699807 -1.36649e-21)             (0.903368 -0.0699807 1.36649e-21)
        0.555             (0.902914 0.0703906 -1.30231e-21)             (0.902914 -0.0703905 1.30232e-21)
         0.56             (0.902458 0.0708028 -1.24006e-21)             (0.902458 -0.0708028 1.24007e-21)
        0.565             (0.902002 0.0712174 -1.17658e-21)             (0.902002 -0.0712174 1.17658e-21)
         0.57             (0.901544 0.0716344 -1.11524e-21)             (0.901544 -0.0716344 1.11525e-21)
        0.575             (0.901086 0.0720538 -1.0548e-21)             (0.901086 -0.0720538 1.0548e-21)
         0.58             (0.900626 0.0724757 -9.95428e-22)             (0.900626 -0.0724757 9.95431e-22)
        0.585             (0.900165 0.0729001 -9.36431e-22)             (0.900165 -0.0729001 9.36434e-22)
         0.59             (0.899702 0.073327 -8.7853e-22)             (0.899702 -0.073327 8.78534e-22)
        0.595             (0.899239 0.0737565 -8.213e-22)             (0.899239 -0.0737565 8.21303e-22)
          0.6             (0.898774 0.0741885 -7.65557e-22)             (0.898774 -0.0741885 7.6556e-22)
        0.605             (0.898309 0.0746232 -7.10283e-22)             (0.898309 -0.0746232 7.10287e-22)
         0.61             (0.897842 0.0750605 -6.55648e-22)             (0.897842 -0.0750605 6.55651e-22)
        0.615             (0.897373 0.0755005 -6.01464e-22)             (0.897373 -0.0755004 6.01468e-22)
         0.62             (0.896904 0.0759431 -5.48725e-22)             (0.896904 -0.0759431 5.48728e-22)
        0.625             (0.896433 0.0763885 -4.96367e-22)             (0.896433 -0.0763885 4.9637e-22)
         0.63             (0.895961 0.0768367 -4.44744e-22)             (0.895961 -0.0768366 4.44746e-22)
        0.635             (0.895488 0.0772876 -3.93875e-22)             (0.895488 -0.0772876 3.93878e-22)
         0.64             (0.895014 0.0777413 -3.43772e-22)             (0.895014 -0.0777413 3.43774e-22)
        0.645             (0.894538 0.0781978 -2.94272e-22)             (0.894538 -0.0781978 2.94275e-22)
         0.65             (0.894061 0.0786572 -2.45659e-22)             (0.894061 -0.0786572 2.45661e-22)
        0.655             (0.893583 0.0791195 -1.97697e-22)             (0.893583 -0.0791195 1.97699e-22)
         0.66             (0.893104 0.0795847 -1.50297e-22)             (0.893104 -0.0795847 1.503e-22)
        0.665             (0.892623 0.0800528 -1.03461e-22)             (0.892623 -0.0800527 1.03464e-22)
         0.67             (0.892141 0.0805238 -5.61418e-23)             (0.892141 -0.0805237 5.61454e-23)
        0.675             (0.891657 0.0809978 -1.28938e-23)             (0.891657 -0.0809977 1.28949e-23)
         0.68             (0.891173 0.0814747 3.13527e-23)             (0.891173 -0.0814747 -3.13485e-23)
        0.685             (0.890687 0.0819547 7.51987e-23)             (0.890687 -0.0819547 -7.51959e-23)
         0.69             (0.890199 0.0824377 1.18358e-22)             (0.890199 -0.0824376 -1.18355e-22)
        0.695             (0.889711 0.0829237 1.61014e-22)             (0.889711 -0.0829236 -1.61011e-22)
          0.7             (0.889221 0.0834127 2.03225e-22)             (0.889221 -0.0834127 -2.03223e-22)
        0.705             (0.88873 0.0839048 2.44286e-22)             (0.88873 -0.0839048 -2.44284e-22)
         0.71             (0.888237 0.0844 2.85285e-22)             (0.888237 -0.0844 -2.85291e-22)
        0.715             (0.887743 0.0848983 3.24657e-22)             (0.887743 -0.0848983 -3.24656e-22)
         0.72             (0.887247 0.0853997 3.64131e-22)             (0.887247 -0.0853997 -3.64129e-22)
        0.725             (0.886751 0.0859042 4.02999e-22)             (0.886751 -0.0859042 -4.02997e-22)
         0.73             (0.886253 0.0864119 4.41422e-22)             (0.886253 -0.0864119 -4.4142e-22)
        0.735             (0.885753 0.0869226 4.79383e-22)             (0.885753 -0.0869226 -4.79381e-22)
         0.74             (0.885252 0.0874365 5.1561e-22)             (0.885252 -0.0874365 -5.15607e-22)
        0.745             (0.88475 0.0879536 5.51203e-22)             (0.88475 -0.0879536 -5.51201e-22)
         0.75             (0.884246 0.0884738 5.87299e-22)             (0.884246 -0.0884738 -5.87296e-22)
        0.755             (0.883741 0.0889972 6.21801e-22)             (0.883741 -0.0889972 -6.21799e-22)
         0.76             (0.883234 0.0895237 6.56035e-22)             (0.883234 -0.0895237 -6.56032e-22)
        0.765             (0.882726 0.0900535 6.90158e-22)             (0.882726 -0.0900534 -6.90155e-22)
         0.77             (0.882217 0.0905863 7.23125e-22)             (0.882217 -0.0905863 -7.23122e-22)
        0.775             (0.881706 0.0911224 7.55676e-22)             (0.881706 -0.0911224 -7.55673e-22)
         0.78             (0.881193 0.0916616 7.87768e-22)             (0.881193 -0.0916616 -7.87766e-22)
        0.785             (0.880679 0.092204 8.19174e-22)             (0.880679 -0.0922039 -8.19171e-22)
         0.79             (0.880164 0.0927495 8.4983e-22)             (0.880164 -0.0927495 -8.49827e-22)
        0.795             (0.879647 0.0932982 8.80312e-22)             (0.879647 -0.0932982 -8.80309e-22)
          0.8             (0.879129 0.0938501 9.09039e-22)             (0.879129 -0.09385 -9.09035e-22)
        0.805             (0.878609 0.0944051 9.37934e-22)             (0.878609 -0.094405 -9.37927e-22)
         0.81             (0.878088 0.0949632 9.66252e-22)             (0.878088 -0.0949632 -9.66249e-22)
        0.815             (0.877565 0.0955245 9.94033e-22)             (0.877565 -0.0955244 -9.9403e-22)
         0.82             (0.87704 0.0960888 1.0209e-21)             (0.87704 -0.0960888 -1.0209e-21)
        0.825             (0.876514 0.0966563 1.04733e-21)             (0.876514 -0.0966563 -1.04733e-21)
         0.83             (0.875987 0.0972269 1.07317e-21)             (0.875987 -0.0972269 -1.07316e-21)
        0.835             (0.875458 0.0978006 1.0984e-21)             (0.875458 -0.0978006 -1.0984e-21)
         0.84             (0.874927 0.0983773 1.12317e-21)             (0.874927 -0.0983773 -1.12317e-21)
        0.845             (0.874395 0.0989571 1.14732e-21)             (0.874395 -0.0989571 -1.14732e-21)
         0.85             (0.873861 0.0995399 1.16993e-21)             (0.873861 -0.0995399 -1.16993e-21)
        0.855             (0.873326 0.100126 1.19268e-21)             (0.873326 -0.100126 -1.19268e-21)
         0.86             (0.872789 0.100715 1.21485e-21)             (0.872789 -0.100714 -1.21484e-21)
        0.865             (0.87225 0.101306 1.2365e-21)             (0.87225 -0.101306 -1.2365e-21)
         0.87             (0.87171 0.101901 1.25747e-21)             (0.87171 -0.101901 -1.25747e-21)
        0.875             (0.871168 0.102499 1.27722e-21)             (0.871168 -0.102499 -1.27721e-21)
         0.88             (0.870624 0.103099 1.29684e-21)             (0.870624 -0.103099 -1.29683e-21)
        0.885             (0.870079 0.103703 1.31579e-21)             (0.870079 -0.103703 -1.31579e-21)
         0.89             (0.869532 0.104309 1.33424e-21)             (0.869532 -0.104309 -1.33424e-21)
        0.895             (0.868984 0.104918 1.35227e-21)             (0.868984 -0.104918 -1.35226e-21)
          0.9             (0.868434 0.10553 1.36847e-21)             (0.868434 -0.10553 -1.36847e-21)
        0.905             (0.867882 0.106144 1.38479e-21)             (0.867882 -0.106144 -1.38479e-21)
         0.91             (0.867328 0.106762 1.40031e-21)             (0.867328 -0.106762 -1.4003e-21)
        0.915             (0.866773 0.107382 1.41413e-21)             (0.866773 -0.107382 -1.41413e-21)
         0.92             (0.866216 0.108004 1.43095e-21)             (0.866216 -0.108004 -1.43095e-21)
        0.925             (0.865657 0.108629 1.44467e-21)             (0.865657 -0.108629 -1.44467e-21)
         0.93             (0.865097 0.109257 1.4577e-21)             (0.865097 -0.109257 -1.4577e-21)
        0.935             (0.864534 0.109888 1.47007e-21)             (0.864534 -0.109888 -1.47007e-21)
         0.94             (0.86397 0.11052 1.48186e-21)             (0.86397 -0.11052 -1.48186e-21)
        0.945             (0.863405 0.111156 1.49302e-21)             (0.863405 -0.111156 -1.49302e-21)
         0.95             (0.862837 0.111793 1.50391e-21)             (0.862837 -0.111793 -1.50391e-21)
        0.955             (0.862268 0.112434 1.5133e-21)             (0.862268 -0.112434 -1.51331e-21)
         0.96             (0.861697 0.113076 1.52235e-21)             (0.861697 -0.113076 -1.52235e-21)
        0.965             (0.861124 0.113721 1.53087e-21)             (0.861124 -0.113721 -1.53087e-21)
         0.97             (0.860549 0.114368 1.53823e-21)             (0.860549 -0.114368 -1.53823e-21)
        0.975             (0.859972 0.115017 1.54516e-21)             (0.859972 -0.115017 -1.54516e-21)
         0.98             (0.859394 0.115668 1.55145e-21)             (0.859394 -0.115668 -1.55145e-21)
        0.985             (0.858814 0.116321 1.55704e-21)             (0.858814 -0.116321 -1.55703e-21)
         0.99             (0.858232 0.116977 1.5619e-21)             (0.858232 -0.116977 -1.5619e-21)
        0.995             (0.857648 0.117634 1.56607e-21)             (0.857648 -0.117634 -1.56607e-21)
            1             (0.857062 0.118293 1.56954e-21)             (0.857062 -0.118293 -1.56954e-21)
        1.005             (0.856474 0.118954 1.57237e-21)             (0.856474 -0.118954 -1.57237e-21)
         1.01             (0.855884 0.119617 1.57471e-21)             (0.855884 -0.119617 -1.57471e-21)
        1.015             (0.855293 0.120282 1.57517e-21)             (0.855293 -0.120282 -1.57517e-21)
         1.02             (0.854699 0.120949 1.57572e-21)             (0.854699 -0.120949 -1.57572e-21)
        1.025             (0.854104 0.121617 1.57557e-21)             (0.854104 -0.121617 -1.57557e-21)
         1.03             (0.853507 0.122286 1.57491e-21)             (0.853507 -0.122286 -1.57491e-21)
        1.035             (0.852907 0.122958 1.57276e-21)             (0.852907 -0.122958 -1.57276e-21)
         1.04             (0.852306 0.12363 1.57033e-21)             (0.852306 -0.12363 -1.57032e-21)
        1.045             (0.851703 0.124305 1.56711e-21)             (0.851703 -0.124305 -1.5671e-21)
         1.05             (0.851098 0.12498 1.56311e-21)             (0.851098 -0.12498 -1.56311e-21)
        1.055             (0.85049 0.125657 1.55836e-21)             (0.85049 -0.125657 -1.55836e-21)
         1.06             (0.849881 0.126335 1.55296e-21)             (0.849881 -0.126335 -1.55296e-21)
        1.065             (0.84927 0.127014 1.54661e-21)             (0.84927 -0.127014 -1.5466e-21)
         1.07             (0.848657 0.127695 1.53987e-21)             (0.848657 -0.127695 -1.53987e-21)
        1.075             (0.848042 0.128376 1.53108e-21)             (0.848042 -0.128376 -1.53108e-21)
         1.08             (0.847425 0.129059 1.52237e-21)             (0.847425 -0.129059 -1.52236e-21)
        1.085             (0.846805 0.129742 1.51287e-21)             (0.846805 -0.129742 -1.51287e-21)
         1.09             (0.846184 0.130426 1.50252e-21)             (0.846184 -0.130426 -1.50252e-21)
        1.095             (0.845561 0.131111 1.49127e-21)             (0.845561 -0.131111 -1.49126e-21)
          1.1             (0.844936 0.131797 1.4796e-21)             (0.844936 -0.131797 -1.4796e-21)
        1.105             (0.844308 0.132483 1.46714e-21)             (0.844308 -0.132483 -1.46714e-21)
         1.11             (0.843679 0.13317 1.45368e-21)             (0.843679 -0.13317 -1.45368e-21)
        1.115             (0.843047 0.133858 1.44024e-21)             (0.843047 -0.133858 -1.44024e-21)
         1.12             (0.842413 0.134546 1.42326e-21)             (0.842413 -0.134546 -1.42326e-21)
        1.125             (0.841778 0.135234 1.40733e-21)             (0.841778 -0.135234 -1.40732e-21)
         1.13             (0.84114 0.135923 1.39085e-21)             (0.84114 -0.135923 -1.39085e-21)
        1.135             (0.8405 0.136612 1.37254e-21)             (0.8405 -0.136612 -1.37254e-21)
         1.14             (0.839858 0.137301 1.35471e-21)             (0.839858 -0.137301 -1.3547e-21)
        1.145             (0.839214 0.13799 1.33448e-21)             (0.839214 -0.13799 -1.33448e-21)
         1.15             (0.838568 0.13868 1.31253e-21)             (0.838568 -0.13868 -1.31253e-21)
        1.155             (0.837919 0.139369 1.29126e-21)             (0.837919 -0.139369 -1.29126e-21)
         1.16             (0.837269 0.140058 1.26922e-21)             (0.837269 -0.140058 -1.26921e-21)
        1.165             (0.836616 0.140747 1.24621e-21)             (0.836616 -0.140747 -1.24621e-21)
         1.17             (0.835961 0.141436 1.22231e-21)             (0.835961 -0.141436 -1.22231e-21)
        1.175             (0.835304 0.142124 1.19748e-21)             (0.835304 -0.142124 -1.19747e-21)
         1.18             (0.834645 0.142812 1.17172e-21)             (0.834645 -0.142812 -1.17172e-21)
        1.185             (0.833984 0.1435 1.14512e-21)             (0.833984 -0.1435 -1.14512e-21)
         1.19             (0.83332 0.144187 1.11765e-21)             (0.83332 -0.144187 -1.11764e-21)
        1.195             (0.832655 0.144874 1.08939e-21)             (0.832655 -0.144874 -1.0894e-21)
          1.2             (0.831987 0.14556 1.05952e-21)             (0.831987 -0.14556 -1.05951e-21)
        1.205             (0.831317 0.146245 1.029e-21)             (0.831317 -0.146245 -1.02899e-21)
         1.21             (0.830645 0.146929 9.97644e-22)             (0.830645 -0.146929 -9.9765e-22)
        1.215             (0.829971 0.147613 9.6606e-22)             (0.829971 -0.147613 -9.6606e-22)
         1.22             (0.829294 0.148295 9.32157e-22)             (0.829294 -0.148295 -9.32147e-22)
        1.225             (0.828616 0.148977 8.97729e-22)             (0.828616 -0.148977 -8.97734e-22)
         1.23             (0.827935 0.149657 8.62871e-22)             (0.827935 -0.149657 -8.62874e-22)
        1.235             (0.827252 0.150337 8.271e-22)             (0.827252 -0.150337 -8.27089e-22)
         1.24             (0.826567 0.151015 7.90013e-22)             (0.826567 -0.151015 -7.9001e-22)
        1.245             (0.825879 0.151692 7.51947e-22)             (0.825879 -0.151692 -7.51959e-22)
         1.25             (0.82519 0.152367 7.13209e-22)             (0.82519 -0.152367 -7.1321e-22)
        1.255             (0.824498 0.153041 6.73386e-22)             (0.824498 -0.153041 -6.73389e-22)
         1.26             (0.823804 0.153714 6.32999e-22)             (0.823804 -0.153714 -6.33001e-22)
        1.265             (0.823108 0.154385 5.90486e-22)             (0.823108 -0.154385 -5.90469e-22)
         1.27             (0.822409 0.155055 5.47317e-22)             (0.822409 -0.155055 -5.47333e-22)
        1.275             (0.821709 0.155722 5.03455e-22)             (0.821709 -0.155722 -5.03455e-22)
         1.28             (0.821006 0.156388 4.59111e-22)             (0.821006 -0.156388 -4.59112e-22)
        1.285             (0.820301 0.157053 4.12687e-22)             (0.820301 -0.157053 -4.12686e-22)
         1.29             (0.819594 0.157715 3.66074e-22)             (0.819594 -0.157715 -3.66076e-22)
        1.295             (0.818885 0.158375 3.18354e-22)             (0.818885 -0.158375 -3.18354e-22)
          1.3             (0.818173 0.159034 2.68458e-22)             (0.818173 -0.159034 -2.68456e-22)
        1.305             (0.81746 0.15969 2.18757e-22)             (0.81746 -0.15969 -2.18744e-22)
         1.31             (0.816744 0.160344 1.67997e-22)             (0.816744 -0.160344 -1.68008e-22)
        1.315             (0.816026 0.160996 1.15949e-22)             (0.816026 -0.160996 -1.15949e-22)
         1.32             (0.815306 0.161646 6.29114e-23)             (0.815306 -0.161646 -6.29001e-23)
        1.325             (0.814583 0.162293 9.50806e-24)             (0.814583 -0.162293 -9.50692e-24)
         1.33             (0.813859 0.162938 -4.62826e-23)             (0.813859 -0.162938 4.62741e-23)
        1.335             (0.813132 0.163581 -1.02511e-22)             (0.813132 -0.163581 1.02523e-22)
         1.34             (0.812403 0.164221 -1.59664e-22)             (0.812403 -0.164221 1.59665e-22)
        1.345             (0.811672 0.164858 -2.17814e-22)             (0.811672 -0.164858 2.17816e-22)
         1.35             (0.810939 0.165493 -2.77004e-22)             (0.810939 -0.165493 2.77005e-22)
        1.355             (0.810204 0.166125 -3.37307e-22)             (0.810204 -0.166125 3.3731e-22)
         1.36             (0.809466 0.166755 -3.98621e-22)             (0.809466 -0.166755 3.98623e-22)
        1.365             (0.808727 0.167381 -4.61009e-22)             (0.808727 -0.167381 4.61011e-22)
         1.37             (0.807985 0.168005 -5.244e-22)             (0.807985 -0.168005 5.24402e-22)
        1.375             (0.807241 0.168626 -5.88718e-22)             (0.807241 -0.168626 5.88719e-22)
         1.38             (0.806495 0.169244 -6.54067e-22)             (0.806495 -0.169244 6.54069e-22)
        1.385             (0.805747 0.169859 -7.21518e-22)             (0.805747 -0.169859 7.2152e-22)
         1.39             (0.804997 0.17047 -7.89135e-22)             (0.804997 -0.17047 7.89137e-22)
        1.395             (0.804244 0.171079 -8.5812e-22)             (0.804244 -0.171079 8.58123e-22)
          1.4             (0.80349 0.171684 -9.28357e-22)             (0.80349 -0.171684 9.28358e-22)
        1.405             (0.802734 0.172287 -9.99285e-22)             (0.802734 -0.172287 9.99287e-22)
         1.41             (0.801975 0.172885 -1.07129e-21)             (0.801975 -0.172885 1.07129e-21)
        1.415             (0.801214 0.173481 -1.14439e-21)             (0.801214 -0.173481 1.14439e-21)
         1.42             (0.800452 0.174073 -1.21826e-21)             (0.800452 -0.174073 1.21826e-21)
        1.425             (0.799687 0.174662 -1.29426e-21)             (0.799687 -0.174662 1.29426e-21)