/*--------------------------------*- C++ -*----------------------------------*\
  =========                 |
  \\      /  F ield         | OpenFOAM: The Open Source CFD Toolbox
   \\    /   O peration     | Website:  https://openfoam.org
    \\  /    A nd           | Version:  7
     \\/     M anipulation  |
\*---------------------------------------------------------------------------*/
FoamFile
{
    version     2.0;
    format      ascii;
    class       volVectorField;
    location    "140";
    object      U;
}
// * * * * * * * * * * * * * * * * * * * * * * * * * * * * * * * * * * * * * //

dimensions      [0 1 -1 0 0 0 0];

internalField   nonuniform List<vector> 
1987
(
(0.738304 -0.00406206 -1.82383e-22)
(0.747557 -0.135512 5.80053e-22)
(0.763362 -0.246997 -7.6202e-23)
(0.782896 -0.330855 -6.26787e-22)
(0.803016 -0.385977 2.38634e-22)
(0.820975 -0.416808 7.33671e-23)
(0.834386 -0.43158 -4.10096e-23)
(0.841101 -0.439588 4.20039e-23)
(0.839751 -0.447125 2.52778e-22)
(0.830467 -0.453897 -1.82425e-23)
(0.814881 -0.452947 -2.76943e-22)
(0.79536 -0.434419 5.3871e-23)
(0.774377 -0.390348 6.31876e-23)
(0.754571 -0.317578 1.79195e-22)
(0.738867 -0.218686 1.02814e-24)
(0.730009 -0.101748 -4.35109e-23)
(0.729751 0.0209885 -3.46379e-22)
(0.738245 0.135932 6.68584e-23)
(0.753814 0.232049 3.04209e-22)
(0.772867 0.30422 -2.95597e-22)
(0.790669 0.354219 1.6703e-22)
(0.802811 0.387639 4.16842e-23)
(0.806829 0.409317 -9.35909e-23)
(0.802486 0.419568 6.22468e-23)
(0.791307 0.41472 4.93298e-23)
(0.775697 0.388812 -1.71914e-22)
(0.758656 0.337404 2.16577e-22)
(0.74346 0.259042 -1.79303e-23)
(0.733346 0.158045 4.64492e-23)
(0.730556 0.0435861 5.30574e-23)
(0.735853 -0.0711797 -9.26839e-23)
(0.747455 -0.173592 -8.46966e-23)
(0.76198 -0.255772 5.75266e-23)
(0.774276 -0.315036 9.79875e-23)
(0.780888 -0.35473 2.19625e-23)
(0.779738 -0.37446 -5.15848e-23)
(0.772399 -0.375386 -3.88592e-23)
(0.760702 -0.349698 2.48974e-23)
(0.74806 -0.298901 2.87613e-23)
(0.736882 -0.218112 -2.99673e-23)
(0.730928 -0.118927 8.93791e-23)
(0.731181 -0.00700764 -2.74715e-24)
(0.738512 0.101067 5.52517e-23)
(0.747865 0.194377 -5.17935e-23)
(0.757078 0.27165 -5.297e-23)
(0.760137 0.317695 -6.10025e-23)
(0.759586 0.350768 -1.18013e-23)
(0.75301 0.336276 1.62228e-23)
(0.745846 0.313213 6.06563e-23)
(0.73612 0.232684 7.29881e-23)
(0.731143 0.153027 -2.01093e-23)
(0.727414 0.0382625 -2.63051e-23)
(0.731068 -0.070754 1.21097e-23)
(0.731905 -0.151543 2.69893e-23)
(0.735039 -0.257187 1.70362e-23)
(0.730292 -0.246702 -3.6308e-24)
(0.729013 -0.323273 2.85258e-24)
(0.717887 -0.203843 -4.85925e-24)
(0.747752 -0.00476995 1.76527e-22)
(0.756493 -0.138216 -1.22228e-21)
(0.771442 -0.251114 7.24228e-22)
(0.789871 -0.335585 1.99983e-21)
(0.808712 -0.390537 -2.27336e-21)
(0.825313 -0.420535 4.93282e-22)
(0.837413 -0.433911 -1.46712e-23)
(0.842929 -0.440109 3.95878e-22)
(0.840449 -0.445724 -6.68844e-22)
(0.830024 -0.450842 2.04547e-22)
(0.813284 -0.448776 6.6902e-22)
(0.792688 -0.42975 -5.33785e-22)
(0.770817 -0.385797 6.87778e-22)
(0.750358 -0.313771 -2.44614e-22)
(0.734255 -0.216227 -3.36981e-23)
(0.725286 -0.101084 9.80306e-23)
(0.725243 0.0197155 9.86329e-23)
(0.73426 0.13297 4.46168e-22)
(0.750548 0.228038 -3.15618e-22)
(0.770376 0.300088 -4.97778e-23)
(0.788931 0.350916 2.8655e-22)
(0.801837 0.385827 -4.82911e-22)
(0.806683 0.409216 2.1569e-22)
(0.803246 0.421012 -2.31789e-22)
(0.792973 0.417304 2.19022e-22)
(0.778182 0.392004 2.25266e-22)
(0.761783 0.340601 -3.78247e-22)
(0.747007 0.261623 5.41853e-22)
(0.737051 0.159488 -2.59706e-23)
(0.734146 0.0436077 -4.79633e-22)
(0.739106 -0.0724989 7.21331e-22)
(0.750231 -0.175769 -1.36781e-22)
(0.764286 -0.258037 2.04892e-22)
(0.776099 -0.316608 1.48093e-22)
(0.782225 -0.35514 -2.05767e-22)
(0.780452 -0.373686 5.09131e-22)
(0.772495 -0.373761 -1.86317e-22)
(0.760219 -0.347682 -4.69863e-23)
(0.747245 -0.296999 1.06042e-22)
(0.735897 -0.216792 1.24127e-22)
(0.72993 -0.118581 -1.16714e-22)
(0.730243 -0.00770112 -2.35028e-22)
(0.73759 0.0996442 -1.59688e-22)
(0.747074 0.19286 1.5522e-22)
(0.756416 0.270619 6.7435e-23)
(0.759978 0.317436 -7.02271e-24)
(0.759903 0.351236 1.3318e-22)
(0.753958 0.337273 -1.02088e-22)
(0.747064 0.314427 -1.55128e-22)
(0.737566 0.233819 -1.36182e-22)
(0.732623 0.15363 -3.00748e-23)
(0.729008 0.0383841 1.54421e-23)
(0.732734 -0.0711184 2.82381e-23)
(0.733724 -0.151716 -3.83866e-23)
(0.736483 -0.257124 -1.13504e-23)
(0.73171 -0.246234 -5.5483e-23)
(0.729731 -0.322506 -2.75262e-23)
(0.719169 -0.203119 2.28299e-24)
(0.758113 -0.00476772 -3.19091e-21)
(0.766271 -0.140192 -3.31854e-21)
(0.780266 -0.254558 6.66854e-22)
(0.797491 -0.33973 1.61135e-21)
(0.814962 -0.394607 -4.03065e-22)
(0.83013 -0.423865 2.19813e-22)
(0.840868 -0.435921 -2.32077e-22)
(0.845171 -0.440355 -8.26985e-22)
(0.841588 -0.444065 9.31209e-22)
(0.830079 -0.447545 -5.06046e-22)
(0.81225 -0.444413 -6.78651e-22)
(0.790641 -0.42499 9.20908e-22)
(0.76794 -0.381284 -4.57792e-22)
(0.746882 -0.310134 -7.83037e-22)
(0.730415 -0.214049 -6.7468e-23)
(0.721342 -0.100781 -5.02538e-22)
(0.721485 0.0180369 5.05548e-22)
(0.73096 0.129604 -1.58927e-22)
(0.74788 0.223666 1.4238e-22)
(0.768397 0.295656 -4.8578e-22)
(0.787644 0.347362 5.1768e-22)
(0.801293 0.383789 -1.85216e-22)
(0.806978 0.408903 -5.83111e-22)
(0.804478 0.422269 7.62286e-22)
(0.795155 0.419753 -4.95598e-22)
(0.781232 0.395142 -2.77718e-22)
(0.765523 0.343836 3.9474e-22)
(0.751209 0.264338 1.16095e-22)
(0.741435 0.161143 -1.36537e-21)
(0.738408 0.0438938 1.37394e-21)
(0.742992 -0.0735441 -8.38787e-22)
(0.753579 -0.177701 4.53917e-22)
(0.767099 -0.260106 3.32561e-22)
(0.778383 -0.318025 -3.93352e-22)
(0.784005 -0.355421 1.58662e-22)
(0.78161 -0.372803 -2.69986e-22)
(0.773042 -0.372061 -3.79743e-23)
(0.760191 -0.345645 -7.45617e-23)
(0.746891 -0.295139 1.65996e-22)
(0.735383 -0.215564 1.73275e-22)
(0.729404 -0.118349 6.44088e-24)
(0.729765 -0.00851003 1.77413e-22)
(0.737108 0.098123 -1.0755e-22)
(0.746707 0.19125 2.89818e-22)
(0.756174 0.269496 -2.7399e-22)
(0.760241 0.317072 3.70601e-22)
(0.760637 0.35162 6.17106e-23)
(0.755312 0.338217 -1.92163e-22)
(0.748684 0.315633 4.38522e-23)
(0.739415 0.234979 -1.24214e-22)
(0.734508 0.15426 1.13236e-22)
(0.731006 0.0385434 -2.36034e-22)
(0.734805 -0.0714783 -2.00605e-22)
(0.735962 -0.151845 -2.35629e-23)
(0.73835 -0.257026 -1.30361e-22)
(0.733539 -0.245718 1.35013e-22)
(0.730835 -0.321714 4.05579e-23)
(0.720784 -0.202446 1.8753e-24)
(0.769363 -0.004025 -8.6488e-22)
(0.776878 -0.141402 -1.56138e-21)
(0.789826 -0.25729 -4.06799e-23)
(0.805754 -0.343261 -3.05453e-21)
(0.82177 -0.398169 1.52129e-21)
(0.835434 -0.426787 7.34214e-22)
(0.844759 -0.437613 1.72821e-22)
(0.847833 -0.440342 5.24004e-22)
(0.843173 -0.442172 -1.48976e-21)
(0.830636 -0.44403 -5.3658e-22)
(0.811784 -0.43988 -5.61064e-24)
(0.789222 -0.420153 2.04456e-21)
(0.765743 -0.37682 -4.96759e-22)
(0.744132 -0.306669 8.25438e-22)
(0.727334 -0.212145 9.50453e-22)
(0.718161 -0.100824 -1.45321e-21)
(0.718458 0.015975 7.51381e-22)
(0.728323 0.12586 -7.82128e-22)
(0.745785 0.218955 1.21042e-21)
(0.766908 0.290937 1.06267e-21)
(0.786792 0.343558 -6.15639e-22)
(0.801166 0.381517 -1.58236e-22)
(0.807704 0.408364 -8.78038e-23)
(0.806174 0.423323 -5.53562e-22)
(0.797846 0.422052 6.67584e-22)
(0.784841 0.398211 2.29191e-22)
(0.769877 0.3471 6.36915e-22)
(0.756071 0.267181 -1.68644e-21)
(0.746506 0.163014 1.41817e-21)
(0.743354 0.0444518 -9.89055e-22)
(0.747524 -0.0743024 -4.93919e-22)
(0.757509 -0.179376 -5.59145e-22)
(0.770428 -0.26197 3.43234e-22)
(0.781133 -0.319286 4.03542e-22)
(0.786229 -0.355576 3.86036e-23)
(0.78321 -0.371813 8.59653e-23)
(0.774033 -0.370289 1.62273e-22)
(0.760609 -0.34359 -2.18752e-22)
(0.746984 -0.293321 3.14104e-22)
(0.73532 -0.214425 -2.14149e-22)
(0.729329 -0.118228 -2.55141e-22)
(0.729725 -0.00942993 2.8328e-22)
(0.737049 0.0965071 2.34211e-24)
(0.746752 0.189546 4.53646e-23)
(0.756345 0.268281 -2.06616e-22)
(0.760919 0.316603 -4.07878e-23)
(0.761784 0.351919 -3.51877e-22)
(0.757074 0.339107 3.89948e-22)
(0.750712 0.316831 2.24751e-22)
(0.741675 0.236164 -5.99619e-23)
(0.736808 0.154916 8.97902e-23)
(0.733417 0.0387395 2.26856e-22)
(0.737289 -0.0718342 -8.00902e-23)
(0.73862 -0.151932 2.58297e-22)
(0.74064 -0.256895 1.92458e-22)
(0.735781 -0.245153 -7.0419e-23)
(0.732325 -0.320891 -1.39144e-23)
(0.722724 -0.20182 1.85989e-23)
(0.781468 -0.00251599 -4.18416e-21)
(0.788289 -0.141809 5.37554e-21)
(0.80011 -0.259275 -3.66931e-21)
(0.814652 -0.34615 3.72945e-22)
(0.829137 -0.401204 4.0276e-21)
(0.841227 -0.429294 -1.85962e-21)
(0.84909 -0.438988 -1.29911e-21)
(0.850918 -0.440084 8.72811e-22)
(0.845202 -0.440067 2.23751e-22)
(0.831692 -0.440323 3.17727e-22)
(0.811881 -0.435196 8.39132e-22)
(0.788424 -0.415253 -4.93887e-22)
(0.764218 -0.37241 -8.91944e-22)
(0.742094 -0.303375 -4.82316e-22)
(0.724993 -0.210507 -1.3045e-21)
(0.71572 -0.101196 1.88966e-21)
(0.716135 0.0135529 -2.33766e-21)
(0.726322 0.121762 1.53055e-21)
(0.74424 0.213927 -5.96904e-22)
(0.765887 0.285943 5.08873e-23)
(0.786359 0.339506 -4.23723e-22)
(0.801441 0.379003 3.15929e-22)
(0.808847 0.407586 -8.98734e-22)
(0.808323 0.42416 1.51382e-21)
(0.801036 0.424187 -6.68341e-22)
(0.789004 0.401197 -1.2796e-21)
(0.774841 0.350382 -3.50786e-22)
(0.761593 0.270146 1.26294e-21)
(0.752268 0.165101 -2.4459e-21)
(0.748991 0.0452899 9.3675e-22)
(0.752715 -0.0747609 1.18148e-22)
(0.762035 -0.180777 2.28347e-22)
(0.77428 -0.263618 -3.74901e-22)
(0.784352 -0.320385 -1.84892e-22)
(0.788895 -0.355605 -7.32328e-23)
(0.785248 -0.37072 -1.58429e-22)
(0.775464 -0.368446 -1.30364e-22)
(0.761463 -0.341516 5.00833e-22)
(0.74751 -0.291545 -3.434e-22)
(0.735689 -0.213375 -9.46537e-23)
(0.729683 -0.118214 -2.03009e-22)
(0.730105 -0.0104569 5.37531e-22)
(0.737396 0.0947994 -3.66954e-22)
(0.747196 0.18775 6.20069e-24)
(0.756919 0.266972 2.02692e-22)
(0.762005 0.316026 -9.32838e-23)
(0.763338 0.352134 6.55812e-23)
(0.759244 0.339942 1.08146e-23)
(0.753151 0.318021 -2.36469e-22)
(0.744356 0.237374 5.14645e-22)
(0.739533 0.1556 -3.92428e-22)
(0.73625 0.0389727 -7.28413e-22)
(0.740188 -0.0721865 5.95286e-22)
(0.741703 -0.151979 -6.4181e-22)
(0.743354 -0.256729 1.99064e-22)
(0.738434 -0.244537 2.1961e-22)
(0.734198 -0.320032 1.46762e-22)
(0.724983 -0.201237 -2.34902e-23)
(0.794384 -0.000209413 -7.4837e-21)
(0.800471 -0.14138 1.14428e-20)
(0.811095 -0.260481 -1.22359e-20)
(0.824175 -0.348369 7.45358e-21)
(0.837056 -0.403692 -2.00435e-21)
(0.847511 -0.431374 1.21563e-21)
(0.853862 -0.440049 -3.11426e-21)
(0.854424 -0.439593 1.14522e-21)
(0.847674 -0.437774 -5.86244e-22)
(0.833243 -0.436448 -7.04028e-23)
(0.812537 -0.430382 3.05128e-22)
(0.788242 -0.410301 1.45239e-21)
(0.763351 -0.368059 -1.83293e-21)
(0.740751 -0.300249 -2.38893e-22)
(0.723369 -0.209125 1.5674e-22)
(0.713992 -0.101883 -1.70098e-22)
(0.714488 0.0107929 -1.51783e-21)
(0.724928 0.117335 1.58672e-21)
(0.743217 0.208602 -2.60064e-22)
(0.765313 0.280686 6.31363e-22)
(0.786324 0.335208 -3.9595e-22)
(0.802103 0.37624 -2.63799e-22)
(0.810394 0.406556 -2.91457e-22)
(0.810911 0.424764 -3.74971e-22)
(0.804712 0.426141 1.282e-21)
(0.793709 0.404084 3.27146e-23)
(0.780407 0.353669 -1.13017e-21)
(0.76777 0.273226 -4.53693e-22)
(0.75872 0.167402 6.76735e-22)
(0.755322 0.0464159 6.95171e-24)
(0.758568 -0.0749074 1.34175e-21)
(0.767163 -0.181892 8.88753e-23)
(0.778662 -0.265039 2.06232e-21)
(0.788042 -0.321318 -1.95134e-21)
(0.792002 -0.355509 1.03082e-21)
(0.787719 -0.369526 1.49618e-22)
(0.777327 -0.366533 9.25109e-23)
(0.762742 -0.339422 -4.92622e-22)
(0.748454 -0.289808 2.99009e-23)
(0.73647 -0.212409 -2.14204e-22)
(0.730445 -0.118304 -8.17109e-23)
(0.730883 -0.011587 -8.43153e-22)
(0.738131 0.093002 3.3258e-22)
(0.748027 0.18586 4.89424e-23)
(0.757886 0.265567 3.876e-23)
(0.763492 0.315341 -2.35817e-22)
(0.765296 0.352262 -1.68853e-22)
(0.76182 0.340721 2.43673e-22)
(0.756006 0.3192 -2.24673e-23)
(0.747464 0.238607 -7.13119e-22)
(0.742692 0.156309 4.26812e-22)
(0.739515 0.0392448 2.73281e-22)
(0.743508 -0.0725344 -9.66064e-22)
(0.745211 -0.151987 4.02274e-22)
(0.746493 -0.256526 -4.28698e-22)
(0.741498 -0.243868 -1.8858e-22)
(0.736454 -0.31913 -2.33168e-22)
(0.727553 -0.200692 -4.50473e-24)
(0.808055 0.00291103 6.72853e-21)
(0.813381 -0.140089 4.56588e-22)
(0.822755 -0.260875 -6.42946e-21)
(0.834305 -0.349892 -1.1035e-21)
(0.845519 -0.405615 3.77263e-21)
(0.854282 -0.433017 -2.10155e-21)
(0.859074 -0.440793 3.05757e-21)
(0.858348 -0.438882 -1.66046e-21)
(0.85058 -0.435312 4.61071e-22)
(0.835278 -0.432429 2.33485e-21)
(0.813741 -0.425455 -3.5156e-21)
(0.788662 -0.405307 7.25653e-22)
(0.763126 -0.363767 2.06818e-21)
(0.74008 -0.297288 -2.67766e-21)
(0.722435 -0.207988 -3.18411e-22)
(0.712948 -0.102866 1.5818e-21)
(0.713486 0.00771937 -1.35827e-22)
(0.724111 0.112606 1.80111e-22)
(0.742687 0.203001 1.71456e-21)
(0.76516 0.275177 3.50487e-22)
(0.786666 0.330663 -4.06707e-22)
(0.803133 0.37322 1.1037e-21)
(0.812325 0.405261 -7.09571e-22)
(0.813919 0.425118 3.18369e-23)
(0.808858 0.427896 -2.23778e-23)
(0.798941 0.406857 6.43462e-22)
(0.786561 0.356946 -1.39629e-22)
(0.774591 0.27641 -5.07951e-22)
(0.765854 0.169915 -1.16601e-21)
(0.762344 0.0478331 -1.12553e-21)
(0.765088 -0.0747307 2.91472e-21)
(0.772899 -0.182706 -7.89703e-22)
(0.783577 -0.266221 -5.56226e-22)
(0.792202 -0.322079 2.56312e-22)
(0.795545 -0.355287 -1.52867e-22)
(0.790614 -0.368233 5.09807e-22)
(0.779612 -0.364552 -1.04592e-21)
(0.764436 -0.337307 3.05541e-22)
(0.749801 -0.288107 4.75046e-22)
(0.737644 -0.211524 -1.76362e-22)
(0.731593 -0.118494 -2.51366e-23)
(0.732037 -0.0128168 -6.40378e-23)
(0.739238 0.0911166 -1.78079e-22)
(0.74923 0.183877 -3.07904e-22)
(0.759236 0.264064 1.74535e-22)
(0.76537 0.314545 2.80595e-22)
(0.767651 0.352302 3.7958e-22)
(0.764801 0.341441 -4.78575e-22)
(0.759278 0.320366 5.29798e-22)
(0.751007 0.239861 2.41701e-22)
(0.746294 0.157046 -6.73031e-22)
(0.743219 0.0395567 3.17698e-22)
(0.747251 -0.0728773 3.31942e-22)
(0.749146 -0.151957 -5.07211e-22)
(0.750054 -0.256287 5.00251e-23)
(0.744969 -0.243143 -1.75637e-22)
(0.739091 -0.318178 4.52857e-23)
(0.730427 -0.20018 1.00352e-24)
(0.822415 0.00684474 -1.12923e-20)
(0.826968 -0.137913 1.17874e-20)
(0.835052 -0.260428 -7.40253e-21)
(0.845018 -0.350693 3.336e-21)
(0.854513 -0.406955 -4.34878e-21)
(0.861535 -0.434214 1.44001e-21)
(0.864723 -0.441221 2.70669e-22)
(0.862687 -0.43796 3.0422e-22)
(0.853914 -0.432703 -7.53044e-22)
(0.837787 -0.428287 2.74496e-21)
(0.81548 -0.420433 -7.55686e-22)
(0.789671 -0.400278 3.19617e-24)
(0.763526 -0.359536 -3.36036e-21)
(0.740057 -0.294485 4.58197e-21)
(0.722161 -0.207084 -9.12996e-22)
(0.712554 -0.10412 7.83241e-22)
(0.713095 0.00435814 -1.94536e-22)
(0.723837 0.107597 -3.97954e-21)
(0.742621 0.197143 2.45754e-21)
(0.765402 0.269426 -1.82885e-22)
(0.787365 0.325872 1.05577e-21)
(0.804511 0.369935 1.42303e-22)
(0.814622 0.403688 -1.56401e-21)
(0.817328 0.425208 -4.15672e-22)
(0.813452 0.429436 -5.47054e-22)
(0.80468 0.409498 1.23479e-21)
(0.793287 0.360198 -1.43206e-21)
(0.782042 0.279689 8.62105e-23)
(0.773658 0.172635 1.02692e-21)
(0.770049 0.0495451 -1.03376e-21)
(0.772271 -0.0742204 2.93135e-21)
(0.779243 -0.183205 -3.00468e-21)
(0.789027 -0.267151 -1.22276e-22)
(0.796831 -0.322661 -5.01978e-22)
(0.799518 -0.354938 1.24191e-21)
(0.793927 -0.366842 -2.24741e-22)
(0.782309 -0.362503 1.36703e-22)
(0.766533 -0.335169 -7.11546e-22)
(0.751533 -0.286439 1.3949e-22)
(0.73919 -0.210717 5.69377e-22)
(0.733103 -0.118779 7.59099e-22)
(0.733546 -0.0141444 -1.17559e-22)
(0.740696 0.0891445 -2.03697e-22)
(0.75079 0.181799 7.77829e-23)
(0.760955 0.262462 3.15276e-23)
(0.76763 0.313636 -4.63793e-22)
(0.770395 0.352252 3.72641e-22)
(0.768183 0.3421 1.08272e-22)
(0.762968 0.321515 -7.45864e-22)
(0.754991 0.241133 6.22385e-22)
(0.750346 0.157809 7.85942e-22)
(0.747371 0.0399094 9.95604e-22)
(0.751422 -0.0732134 2.91269e-23)
(0.753508 -0.151889 8.99169e-22)
(0.754034 -0.256008 1.91482e-22)
(0.748844 -0.24236 -1.15417e-22)
(0.742106 -0.317172 1.47195e-22)
(0.733596 -0.199696 -5.93757e-25)
(0.837388 0.011579 -6.2434e-21)
(0.841172 -0.134835 8.23512e-21)
(0.847946 -0.259117 -9.66575e-21)
(0.856288 -0.35075 5.37163e-21)
(0.86402 -0.407696 -1.61156e-21)
(0.869259 -0.434953 -2.38652e-21)
(0.870803 -0.441328 4.855e-21)
(0.867431 -0.436836 -1.24531e-21)
(0.857662 -0.429963 -3.30732e-22)
(0.840754 -0.424045 2.15252e-21)
(0.817736 -0.415334 1.42175e-25)
(0.791249 -0.395223 -2.94604e-21)
(0.764529 -0.355362 1.53474e-21)
(0.740654 -0.29183 1.49416e-21)
(0.722514 -0.206397 -1.36155e-21)
(0.712774 -0.105631 1.4697e-21)
(0.713277 0.000733471 -8.68215e-22)
(0.72407 0.102334 -2.78399e-21)
(0.742986 0.191046 2.76201e-22)
(0.766013 0.263443 2.0664e-21)
(0.788396 0.320834 -1.14625e-22)
(0.806214 0.366377 -1.3373e-21)
(0.817261 0.401824 -2.62506e-22)
(0.821114 0.425016 1.33341e-21)
(0.818472 0.430742 1.17869e-21)
(0.810904 0.411988 8.72111e-22)
(0.800562 0.36341 2.66758e-21)
(0.790102 0.28305 -1.69194e-21)
(0.782114 0.175558 -2.7558e-22)
(0.778425 0.0515522 1.41835e-21)
(0.78011 -0.073368 -1.77677e-21)
(0.786195 -0.183375 2.90797e-21)
(0.795011 -0.267817 -3.2968e-21)
(0.801927 -0.323055 3.24353e-22)
(0.803914 -0.35446 -5.52152e-22)
(0.797647 -0.365354 1.11303e-21)
(0.785408 -0.360384 -5.95053e-23)
(0.769019 -0.333003 -1.00369e-22)
(0.753636 -0.284798 -5.46839e-22)
(0.741088 -0.209983 1.05053e-22)
(0.734954 -0.119157 -4.42221e-22)
(0.73539 -0.0155651 -2.34874e-22)
(0.74249 0.0870863 5.75621e-22)
(0.752692 0.179625 -9.71203e-23)
(0.763031 0.260756 -1.67587e-24)
(0.770259 0.312612 1.31158e-22)
(0.773519 0.352108 4.56823e-22)
(0.771962 0.342693 -1.50759e-22)
(0.767079 0.322644 1.54549e-21)
(0.75942 0.242421 -9.01904e-22)
(0.754854 0.158597 4.6605e-22)
(0.75198 0.0403047 -4.66214e-22)
(0.756022 -0.0735407 -4.84352e-22)
(0.758295 -0.151784 -6.48919e-23)
(0.758431 -0.25569 4.36284e-22)
(0.75312 -0.241518 9.15754e-22)
(0.745497 -0.316103 -1.57432e-23)
(0.737054 -0.199234 -2.37748e-23)
(0.852889 0.0171104 -7.78254e-22)
(0.855929 -0.130843 1.06639e-20)
(0.861387 -0.256919 -1.77982e-21)
(0.868079 -0.350041 -3.91765e-21)
(0.874018 -0.407821 -2.18257e-21)
(0.877442 -0.435224 5.14157e-21)
(0.877305 -0.441112 -2.8169e-21)
(0.872571 -0.435516 6.55762e-22)
(0.861813 -0.42711 -2.61566e-22)
(0.844163 -0.419723 -5.20794e-22)
(0.820491 -0.410172 2.24059e-22)
(0.793376 -0.390148 -6.29946e-22)
(0.766112 -0.351242 -2.10072e-21)
(0.741844 -0.289312 1.20382e-21)
(0.723459 -0.20591 1.99639e-21)
(0.713571 -0.107379 -1.18484e-21)
(0.713995 -0.00312227 -6.21167e-22)
(0.724775 0.0968393 -1.33153e-21)
(0.743752 0.184729 -9.37772e-24)
(0.766965 0.257237 7.29821e-22)
(0.789734 0.315551 4.18916e-22)
(0.808218 0.36254 1.92716e-21)
(0.820218 0.399657 -2.4645e-21)
(0.825251 0.424529 -5.46819e-22)
(0.823891 0.431798 -1.38487e-23)
(0.817586 0.414309 6.56924e-22)
(0.80836 0.366563 1.05453e-21)
(0.798745 0.286481 1.26168e-21)
(0.791199 0.178676 3.82783e-21)
(0.787452 0.0538554 -1.42057e-21)
(0.788594 -0.072166 -3.09691e-21)
(0.793749 -0.183204 2.49708e-21)
(0.801526 -0.268205 -2.49974e-22)
(0.807482 -0.323254 1.01096e-21)
(0.808726 -0.35385 -7.39509e-22)
(0.801764 -0.363769 1.42971e-22)
(0.788897 -0.358196 -3.82609e-22)
(0.771882 -0.330808 4.80098e-22)
(0.756094 -0.283178 -4.05158e-22)
(0.743319 -0.209315 9.57971e-22)
(0.737125 -0.119621 -2.71278e-22)
(0.737546 -0.0170692 -1.81613e-22)
(0.744598 0.084943 8.63382e-23)
(0.754921 0.177353 -2.42858e-22)
(0.76545 0.258946 -1.82682e-22)
(0.773247 0.311468 -4.63426e-22)
(0.777014 0.351867 -7.5182e-22)
(0.776133 0.343217 2.89819e-22)
(0.771608 0.323747 -4.70114e-22)
(0.764299 0.243722 -6.79093e-22)
(0.759826 0.159411 3.1465e-22)
(0.757051 0.0407449 -2.15509e-21)
(0.761055 -0.0738564 8.4152e-24)
(0.763507 -0.151641 -5.56383e-22)
(0.763239 -0.255329 5.17314e-23)
(0.75779 -0.240614 -7.49137e-23)
(0.749259 -0.314965 -1.13932e-22)
(0.740792 -0.198788 1.03667e-23)
(0.868824 0.0235358 2.92253e-20)
(0.871163 -0.125923 -1.83547e-20)
(0.875321 -0.253818 -1.7457e-21)
(0.880353 -0.348548 2.99105e-21)
(0.884481 -0.407316 -5.98991e-22)
(0.886066 -0.435017 -2.88752e-21)
(0.884218 -0.440567 1.40125e-21)
(0.878097 -0.434005 3.14064e-21)
(0.866352 -0.424158 -2.7483e-21)
(0.847995 -0.41534 6.91867e-22)
(0.823722 -0.404964 -1.00941e-21)
(0.796029 -0.385057 1.61471e-21)
(0.768248 -0.347171 -6.52846e-22)
(0.743596 -0.28692 -6.00326e-22)
(0.724962 -0.205608 1.42702e-21)
(0.714909 -0.109337 -2.51125e-21)
(0.71521 -0.00717137 3.14213e-21)
(0.725915 0.091136 -8.01749e-22)
(0.744887 0.178208 -1.44498e-21)
(0.768231 0.250817 8.26618e-22)
(0.791354 0.310024 5.00114e-22)
(0.810497 0.358418 -1.56844e-21)
(0.823466 0.397177 8.76028e-22)
(0.82971 0.42373 1.25359e-21)
(0.829678 0.432584 -1.86776e-21)
(0.824694 0.416442 -2.54148e-21)
(0.81665 0.369641 -1.13086e-21)
(0.807942 0.289968 1.50693e-21)
(0.800885 0.181982 -9.86143e-22)
(0.797106 0.0564593 -5.05285e-21)
(0.797705 -0.070608 4.52028e-21)
(0.801895 -0.18268 -2.5606e-21)
(0.808565 -0.268301 -1.87131e-21)
(0.813492 -0.323248 2.83938e-21)
(0.813944 -0.353105 -8.52818e-22)
(0.806266 -0.362088 5.83889e-22)
(0.792762 -0.355937 -2.1541e-22)
(0.775108 -0.328578 -7.21263e-22)
(0.758891 -0.281575 7.91067e-22)
(0.745864 -0.208708 -1.25036e-22)
(0.739595 -0.120168 -2.78009e-22)
(0.739994 -0.018669 2.88973e-22)
(0.747001 0.0827142 8.91814e-24)
(0.757458 0.174981 6.09419e-23)
(0.768195 0.257027 4.01618e-22)
(0.776578 0.310203 -1.72804e-22)
(0.78087 0.351526 4.12848e-23)
(0.78069 0.343666 -4.54379e-22)
(0.776554 0.32482 1.58869e-22)
(0.769629 0.245031 7.25262e-22)
(0.765266 0.160248 2.834e-22)
(0.762591 0.0412312 3.17154e-21)
(0.76652 -0.0741572 1.44726e-21)
(0.769141 -0.151461 -7.47335e-22)
(0.768452 -0.254923 -1.23144e-21)
(0.762848 -0.239646 -1.94716e-22)
(0.753388 -0.31375 1.06109e-22)
(0.7448 -0.198351 3.66381e-23)
(0.885102 0.030674 8.44282e-21)
(0.886773 -0.120096 -1.13948e-20)
(0.889683 -0.249804 1.36841e-22)
(0.893068 -0.346254 1.13134e-20)
(0.895378 -0.406167 1.74489e-21)
(0.895113 -0.434322 3.88667e-21)
(0.89153 -0.439689 6.77635e-22)
(0.883996 -0.432304 -6.89432e-21)
(0.87126 -0.421122 7.18293e-22)
(0.852229 -0.410917 3.61223e-22)
(0.827405 -0.399725 1.44961e-21)
(0.799182 -0.379957 -2.07415e-21)
(0.770913 -0.343142 2.53112e-21)
(0.74588 -0.284638 -3.77238e-22)
(0.726987 -0.205471 -5.17552e-23)
(0.71675 -0.111484 2.66585e-22)
(0.716884 -0.0114459 -2.96526e-22)
(0.727449 0.0852433 1.40876e-21)
(0.746357 0.171501 -1.65027e-21)
(0.769781 0.244193 8.59977e-22)
(0.793229 0.304252 2.74732e-22)
(0.813026 0.354005 3.51046e-22)
(0.826975 0.394373 -2.36199e-22)
(0.83446 0.422606 -1.54654e-21)
(0.8358 0.433085 -9.14917e-22)
(0.832195 0.418368 2.26312e-21)
(0.825397 0.372624 2.74623e-21)
(0.817656 0.293494 -1.88071e-21)
(0.811139 0.185464 1.96928e-21)
(0.807357 0.0593602 9.58962e-22)
(0.807419 -0.0686901 -8.01432e-22)
(0.810619 -0.181792 -1.06535e-21)
(0.816122 -0.268093 3.73421e-21)
(0.819946 -0.323027 -1.40256e-22)
(0.819557 -0.352221 -6.5628e-22)
(0.811141 -0.36031 -5.79277e-22)
(0.79699 -0.353607 1.10316e-21)
(0.778683 -0.326311 -7.8109e-22)
(0.762011 -0.279981 9.09391e-23)
(0.748704 -0.208155 3.39392e-22)
(0.74234 -0.120793 -8.89436e-23)
(0.742713 -0.0203627 1.53993e-22)
(0.749683 0.0803998 5.09721e-24)
(0.760287 0.172509 2.65294e-23)
(0.771252 0.254997 2.55258e-22)
(0.78024 0.308812 -4.17019e-22)
(0.785075 0.351079 -3.41291e-23)
(0.785623 0.344035 1.94703e-21)
(0.781912 0.325856 -2.39531e-21)
(0.77541 0.246344 -3.27997e-22)
(0.771176 0.161109 -2.80954e-22)
(0.768606 0.0417654 2.255e-22)
(0.772418 -0.0744389 -1.10202e-21)
(0.775193 -0.151241 -8.68836e-22)
(0.774063 -0.25447 4.51943e-22)
(0.768286 -0.238612 -5.15066e-22)
(0.75788 -0.312452 -3.72265e-22)
(0.749072 -0.197917 -2.60865e-23)
(0.901612 0.0384908 2.06169e-20)
(0.902711 -0.113361 -2.93274e-20)
(0.904412 -0.244869 1.09255e-20)
(0.906173 -0.343148 1.60337e-20)
(0.906674 -0.404365 -1.05758e-20)
(0.904559 -0.433132 -8.56518e-22)
(0.899225 -0.43847 -4.55121e-22)
(0.890252 -0.430416 5.08694e-21)
(0.876521 -0.418011 -1.88164e-21)
(0.856843 -0.406468 -1.74679e-21)
(0.831516 -0.394468 -5.54268e-23)
(0.802807 -0.37485 1.21923e-21)
(0.774076 -0.339149 -2.25209e-21)
(0.748666 -0.282452 2.59384e-21)
(0.7295 -0.20548 5.43123e-22)
(0.719048 -0.113804 -2.97496e-21)
(0.718977 -0.0159166 3.64321e-22)
(0.729352 0.0791841 3.58364e-23)
(0.748133 0.164625 1.65974e-22)
(0.771588 0.237373 -6.00578e-23)
(0.795332 0.298239 -7.1947e-22)
(0.815775 0.349297 1.89263e-21)
(0.830716 0.391236 -2.00147e-21)
(0.839468 0.421143 2.58029e-21)
(0.842223 0.433282 -1.51382e-21)
(0.840052 0.420067 6.85969e-22)
(0.834562 0.375494 -1.67145e-21)
(0.827848 0.297045 1.44264e-21)
(0.821922 0.189112 -5.94498e-22)
(0.818173 0.0625407 1.01992e-21)
(0.817711 -0.066412 -3.75732e-21)
(0.819905 -0.180533 -7.5362e-22)
(0.824184 -0.267568 -5.2953e-22)
(0.826835 -0.32258 7.23878e-22)
(0.825551 -0.351194 1.33621e-22)
(0.816375 -0.358433 1.4215e-22)
(0.801566 -0.351204 -8.20943e-22)
(0.782592 -0.324001 -1.46676e-22)
(0.76544 -0.278388 -5.75122e-22)
(0.751821 -0.207648 2.1373e-23)
(0.745342 -0.121489 7.71239e-23)
(0.745681 -0.0221331 2.31537e-22)
(0.752622 0.0780005 -1.80868e-22)
(0.76339 0.169932 -1.15891e-22)
(0.774602 0.252852 -1.78484e-22)
(0.784217 0.307294 6.6551e-23)
(0.789615 0.350521 1.0738e-21)
(0.790925 0.344318 -1.3599e-21)
(0.787678 0.326848 1.92364e-21)
(0.781643 0.247655 2.67348e-21)
(0.777559 0.16199 -1.2176e-22)
(0.7751 0.0423505 -2.08636e-21)
(0.778751 -0.074697 -6.98245e-23)
(0.781661 -0.15098 1.88363e-21)
(0.780064 -0.253967 -6.68256e-22)
(0.774097 -0.23751 8.53734e-22)
(0.762728 -0.311063 1.73561e-22)
(0.753597 -0.197477 1.26081e-23)
(0.918254 0.0471552 2.21405e-20)
(0.918862 -0.10572 3.2073e-21)
(0.919432 -0.239013 -9.67346e-21)
(0.919619 -0.339221 5.25791e-22)
(0.918333 -0.401898 -3.58742e-21)
(0.914376 -0.431438 1.69593e-20)
(0.907284 -0.436906 -9.87736e-21)
(0.896851 -0.42834 1.2644e-21)
(0.882115 -0.414834 -2.84057e-22)
(0.861813 -0.402011 3.56296e-21)
(0.836028 -0.389208 6.42369e-22)
(0.806878 -0.369742 -5.19287e-21)
(0.77771 -0.335185 8.01465e-22)
(0.751924 -0.280346 -5.74366e-22)
(0.732466 -0.205613 2.98748e-22)
(0.721769 -0.116273 2.46295e-22)
(0.721452 -0.0205132 7.86406e-22)
(0.731584 0.0729805 1.09253e-21)
(0.750183 0.157594 -1.7678e-21)
(0.773623 0.230367 1.49977e-21)
(0.797636 0.291986 -3.0264e-23)
(0.818716 0.344292 9.17312e-22)
(0.834656 0.387758 1.26002e-21)
(0.8447 0.419329 -8.93103e-22)
(0.848908 0.43316 -2.25246e-21)
(0.848222 0.421522 3.72943e-21)
(0.844102 0.378232 2.06138e-22)
(0.838476 0.300603 1.45147e-22)
(0.833192 0.192915 -6.96815e-21)
(0.829513 0.0659901 6.16462e-21)
(0.828551 -0.0637744 1.62692e-21)
(0.82973 -0.178893 2.57717e-21)
(0.832737 -0.266713 -4.21038e-21)
(0.834147 -0.321898 -8.46513e-22)
(0.831914 -0.350018 -1.18704e-21)
(0.821954 -0.356458 6.98604e-23)
(0.806475 -0.348727 4.52517e-23)
(0.78682 -0.321644 -3.38552e-22)
(0.769161 -0.27679 6.09411e-22)
(0.755198 -0.20718 -3.8518e-22)
(0.748582 -0.122251 3.64223e-24)
(0.748879 -0.0239826 -1.72535e-22)
(0.755799 0.0755158 2.53795e-22)
(0.766748 0.167251 7.25262e-23)
(0.778229 0.25059 -1.71399e-22)
(0.788492 0.305643 2.42027e-22)
(0.794477 0.349849 -1.12526e-21)
(0.796584 0.344509 5.02051e-22)
(0.793844 0.327789 -2.70274e-23)
(0.788323 0.248961 -4.04861e-22)
(0.784415 0.162889 4.27468e-22)
(0.782076 0.0429898 1.96133e-21)
(0.785516 -0.074926 -1.95258e-21)
(0.788538 -0.150676 7.47148e-22)
(0.786447 -0.253411 1.62355e-21)
(0.78027 -0.236339 2.987e-22)
(0.767926 -0.309576 2.84389e-22)
(0.758367 -0.197026 -8.44406e-24)
(0.934919 0.0565026 2.67978e-20)
(0.935123 -0.0972111 -3.31998e-20)
(0.934667 -0.232242 1.88359e-20)
(0.933347 -0.334466 -2.25314e-20)
(0.930314 -0.39876 2.6389e-21)
(0.924537 -0.429234 1.70136e-20)
(0.915689 -0.434989 -3.48035e-21)
(0.903776 -0.426072 -7.49348e-21)
(0.888022 -0.4116 -2.2196e-21)
(0.867115 -0.397559 3.69679e-21)
(0.840913 -0.383959 -2.0244e-21)
(0.811363 -0.364638 -5.0653e-22)
(0.781784 -0.331242 1.64505e-21)
(0.755622 -0.278302 9.69607e-22)
(0.735852 -0.205851 -1.04841e-21)
(0.724879 -0.118864 -4.4303e-22)
(0.724273 -0.0252375 -1.03306e-21)
(0.734112 0.0666518 2.85068e-21)
(0.752477 0.150426 -3.46683e-21)
(0.775859 0.223186 1.95385e-21)
(0.800113 0.285499 -8.0718e-22)
(0.821819 0.338987 -7.07318e-22)
(0.838764 0.383933 2.63493e-22)
(0.850118 0.417153 2.23178e-22)
(0.855815 0.432702 -2.37541e-22)
(0.856665 0.422712 -5.23181e-22)
(0.853973 0.380817 -2.18326e-21)
(0.849492 0.30415 9.85582e-22)
(0.844902 0.196857 2.02238e-22)
(0.841336 0.0697122 3.67977e-21)
(0.839903 -0.0607783 -9.60065e-22)
(0.840068 -0.176869 -8.10781e-22)
(0.841765 -0.265518 3.57719e-21)
(0.841868 -0.320969 -9.77869e-22)
(0.83863 -0.348687 4.53444e-22)
(0.82786 -0.354383 2.0944e-21)
(0.811701 -0.346175 -1.19676e-21)
(0.791352 -0.319236 7.6088e-22)
(0.773162 -0.275178 -8.23629e-23)
(0.758819 -0.206743 -1.45698e-22)
(0.75204 -0.123073 -6.10393e-23)
(0.752286 -0.0259084 -8.28339e-23)
(0.759194 0.0729457 -2.85659e-22)
(0.770343 0.164463 -4.51508e-23)
(0.782115 0.248208 -8.84183e-23)
(0.793048 0.303856 -1.66907e-22)
(0.799645 0.349055 9.72464e-23)
(0.802588 0.344599 1.00519e-21)
(0.800401 0.328671 -1.99023e-21)
(0.795446 0.250253 -3.59324e-22)
(0.79174 0.163805 -1.17646e-21)
(0.789535 0.0436851 -1.47676e-21)
(0.792713 -0.0751203 3.43009e-21)
(0.79582 -0.150326 6.02551e-22)
(0.7932 -0.252798 -1.34262e-22)
(0.786793 -0.235097 -1.04004e-21)
(0.773466 -0.307986 -4.00826e-22)
(0.763372 -0.196554 3.67988e-23)
(0.951497 0.0664432 2.55e-21)
(0.95141 -0.0878622 1.81072e-21)
(0.950041 -0.224567 -1.19763e-20)
(0.947301 -0.328885 -2.94658e-22)
(0.942572 -0.394945 1.84856e-21)
(0.935009 -0.426515 6.50225e-21)
(0.924417 -0.432715 -3.67078e-21)
(0.911009 -0.423608 1.72183e-21)
(0.894221 -0.408311 -3.56634e-21)
(0.872725 -0.393127 -2.14562e-21)
(0.846145 -0.378732 -5.17629e-22)
(0.816233 -0.359541 -1.33513e-21)
(0.786268 -0.327313 3.12636e-22)
(0.759731 -0.276305 7.69965e-22)
(0.739628 -0.206169 -1.56138e-21)
(0.728342 -0.121555 2.92556e-21)
(0.727404 -0.0300642 3.64127e-22)
(0.736903 0.0602184 -1.57144e-21)
(0.754984 0.143135 5.9298e-22)
(0.778267 0.215838 1.40502e-21)