/*--------------------------------*- C++ -*----------------------------------*\
  =========                 |
  \\      /  F ield         | OpenFOAM: The Open Source CFD Toolbox
   \\    /   O peration     | Website:  https://openfoam.org
    \\  /    A nd           | Version:  7
     \\/     M anipulation  |
\*---------------------------------------------------------------------------*/
FoamFile
{
    version     2.0;
    format      ascii;
    class       volScalarField;
    location    "15.5";
    object      p;
}
// * * * * * * * * * * * * * * * * * * * * * * * * * * * * * * * * * * * * * //

dimensions      [1 -1 -2 0 0 0 0];

internalField   nonuniform List<scalar> 
4032
(
1
1
1
1
1
1
1
1
1
1
1
1.05232
6.74304
10.5722
10.7252
10.9266
11.1159
11.2971
11.466
11.6197
11.7559
11.866
11.9488
12.0069
1
1
1
1
1
1
1
1
1
1
1
1.00442
6.58528
10.5263
10.6962
10.896
11.0854
11.2641
11.4296
11.5782
11.7077
11.8095
11.8831
11.9347
1
1
1
1
1
1
1
1
1
1
1
1.00008
6.23677
10.4603
10.6461
10.8406
11.0277
11.2008
11.3602
11.5027
11.6275
11.7267
11.7981
11.8517
1
1
1
1
1
1
1
1
1
1
1
1
5.70918
10.3492
10.5771
10.7641
10.9479
11.1138
11.266
11.4013
11.5177
11.6044
11.6586
11.6939
1
1
1
1
1
1
1
1
1
1
1
1
5.02622
10.1627
10.4884
10.6653
10.8417
10.9938
11.1283
11.2409
11.3327
11.4022
11.4468
11.5002
1
1
1
1
1
1
1
1
1
1
1
1
4.21109
9.85961
10.379
10.5439
10.7062
10.8384
10.9518
11.046
11.1228
11.1789
11.1926
11.1497
1
1
1
1
1
1
1
1
1
1
1
1
3.30645
9.39459
10.3021
10.4466
10.5856
10.6864
10.7581
10.8058
10.8177
10.7696
10.6938
10.6411
1
1
1
1
1
1
1
1
1
1
1
1
2.32407
8.66194
10.237
10.342
10.4532
10.5201
10.5473
10.5399
10.4764
10.3766
10.2301
10.1845
1
1
1
1
1
1
1
1
1
1
1
1
1.38459
7.7041
10.2388
10.1979
10.2785
10.3082
10.2896
10.2237
10.067
9.78055
9.01687
7.01102
1
1
1
1
1
1
1
1
1
1
1
1
1.01955
6.37979
9.90688
9.87872
9.97807
10.0153
9.97998
9.86202
9.61957
9.13583
8.33878
6.29283
1
1
1
1
1
1
1
1
1
1
1
1
0.999962
4.59647
9.4041
9.7652
9.83596
9.79987
9.70847
9.52203
9.21231
8.64598
7.83924
5.96344
1
1
1
1
1
1
1
1
1
1
1
1
0.999988
2.74714
8.58169
9.62237
9.61614
9.57177
9.45104
9.20868
8.8361
8.26797
7.4166
5.86847
1
1
1
1
1
1
1
1
1
1
1
1
0.999998
1.29078
7.41122
9.72277
9.4721
9.33656
9.17588
8.90259
8.50757
7.9647
7.08663
5.95073
1
1
1
1
1
1
1
1
1
1
1
1
1
1.0091
5.57852
9.02002
9.09363
9.05963
8.89769
8.62823
8.24078
7.68769
6.90512
6.03196
1
1
1
1
1
1
1
1
1
1
1
1
1
0.999896
3.07126
8.21881
8.99138
8.91453
8.71948
8.42329
8.05386
7.52298
6.85543
6.16294
1
1
1
1
1
1
1
1
1
1
1
1
1
0.999974
1.32238
6.872
8.98893
8.7634
8.52797
8.22347
7.88782
7.42421
6.90334
6.44196
1
1
1
1
1
1
1
1
1
1
1
1
1
0.999996
1.00925
4.56797
8.40683
8.49267
8.3193
8.07776
7.80189
7.46036
7.14366
6.93945
1
1
1
1
1
1
1
1
1
1
1
1
1
1
0.999949
1.88523
7.4308
8.47569
8.22949
8.03582
7.88292
7.73828
7.61144
7.48273
1
1
1
1
1
1
1
1
1
1
1
1
1
1
0.999987
1.06435
5.31281
8.16448
8.08411
8.10184
8.16726
8.17812
8.06143
7.89207
1
1
1
1
1
1
1
1
1
1
1
1
1
1
0.999998
1.00021
2.22399
7.21409
8.27429
8.56775
8.73969
8.6715
8.44589
8.20862
1
1
1
1
1
1
1
1
1
1
1
1
1
1
1
1
1.11641
5.3751
8.5576
9.13139
9.1988
8.95312
8.67952
8.43881
1
1
1
1
1
1
1
1
1
1
1
1
1
1
1
1
1.00097
2.53912
8.53322
9.89969
9.60232
9.22549
8.91098
8.64106
1
1
1
1
1
1
1
1
1
1
1
1
1
1
1
1
1
1.19692
8.0324
10.3957
9.73676
9.35698
9.10326
8.85156
1
1
1
1
1
1
1
1
1
1
1
1
1
1
1
1
1
1.00285
6.64064
10.3313
9.8138
9.57015
9.33935
9.06134
1
1
1
1
1
1
1
1
1
1
1
1
1
1
1
1
1
0.999995
5.24474
10.2692
9.96703
9.74773
9.52435
9.28465
1
1
1
1
1
1
1
1
1
1
1
1
1
1
1
1
1
0.999999
4.17512
9.8816
10.0924
9.87975
9.68162
9.46256
1
1
1
1
1
1
1
1
1
1
1
1
1
1
1
1
1
1
3.17176
9.31484
10.0958
9.89318
9.78264
9.62594
1
1
1
1
1
1
1
1
1
1
1
1
1
1
1
1
1
1
2.29119
8.79456
10.3495
10.0633
9.93211
9.77674
1
1
1
1
1
1
1
1
1
1
1
1
1
1
1
1
1
1
1.58466
8.15705
10.4363
10.1189
9.98504
9.84984
1
1
1
1
1
1
1
1
1
1
1
1
1
1
1
1
1
1
1.21687
7.58683
10.5111
10.2089
10.0591
9.91827
1
1
1
1
1
1
1
1
1
1
1
1
1
1
1
1
1
1
1.02097
6.9413
10.4801
10.2593
10.1171
9.98262
1
1
1
1
1
1
1
1
1
1
1
1
1
1
1
1
1
1
1.00013
6.24073
10.4013
10.3273
10.1765
10.052
1
1
1
1
1
1
1
1
1
1
1
1
1
1
1
1
1
1
1
5.64732
10.3331
10.3815
10.2075
10.0921
1
1
1
1
1
1
1
1
1
1
1
1
1
1
1
1
1
1
1
5.08871
10.2842
10.4352
10.2497
10.1417
1
1
1
1
1
1
1
1
1
1
1
1
1
1
1
1
1
1
1
4.63677
10.2292
10.4845
10.2853
10.1756
1
1
1
1
1
1
1
1
1
1
1
1
1
1
1
1
1
1
1
4.30176
10.1576
10.5252
10.3189
10.2076
1
1
1
1
1
1
1
1
1
1
1
1
1
1
1
1
1
1
1
4.0528
10.0827
10.5559
10.3445
10.2315
1
1
1
1
1
1
1
1
1
1
1
1
1
1
1
1
1
1
1
3.8635
10.0202
10.5802
10.3665
10.253
1
1
1
1
1
1
1
1
1
1
1
1
1
1
1
1
1
1
1
3.74836
9.96783
10.588
10.3756
10.262
1
1
1
1
1
1
1
1
1
1
1
1
1
1
1
1
1
1
1
3.70896
9.927
10.583
10.3805
10.2717
2.21226
2.64192
3.17903
3.60063
3.65534
3.64451
3.6751
3.74735
3.84434
3.95293
4.01839
4.03132
4.02449
4.01907
4.0316
4.05845
4.08591
4.10578
4.11584
4.11758
4.11514
4.11541
4.12847
4.15727
4.19412
4.22888
4.25626
4.27648
4.29411
4.31465
4.3433
4.38308
4.43212
4.48767
4.54621
4.59999
4.64258
4.67613
4.70456
4.73247
4.76252
4.79394
4.82392
4.84967
4.86953
4.88225
4.88364
4.86985
4.84117
4.80386
4.76431
4.72333
4.67726
4.6247
4.57038
4.52057
4.47621
4.43241
4.3853
4.33671
4.28997
4.24491
4.19649
4.13962
4.07614
4.0123
3.952
3.89619
3.84301
3.78672
3.72624
3.66519
3.60582
3.54923
3.4959
3.44608
3.40031
3.35987
3.32534
3.28853
3.24618
3.20317
3.1579
3.10705
3.05046
2.99353
2.94554
2.90903
2.87714
2.8476
2.81918
2.79108
2.76136
2.7278
2.70213
2.66173
3.53525
3.89946
3.75595
3.77527
3.76495
3.73629
3.78558
3.87883
3.94377
3.97855
3.98281
3.97135
3.94448
3.92488
3.92669
3.94778
3.98281
4.01777
4.03973
4.04987
4.05563
4.06338
4.08217
4.11386
4.15139
4.1862
4.21452
4.23904
4.26605
4.29901
4.33683
4.37661
4.4161
4.45714
4.50489
4.56052
4.61795
4.66677
4.69938
4.71965
4.73962
4.76577
4.79376
4.81308
4.81929
4.81999
4.82302
4.82408
4.81137
4.77622
4.73132
4.69057
4.65486
4.61396
4.56282
4.50876
4.45892
4.41269
4.36435
4.31032
4.25426
4.20117
4.15292
4.10492
4.05022
3.98977
3.92864
3.86947
3.81344
3.76086
3.70929
3.65822
3.60959
3.56462
3.52091
3.47186
3.4219
3.37319
3.32519
3.2805
3.2398
3.2018
3.1619
3.11886
3.07229
3.02315
2.97506
2.93393
2.89981
2.87012
2.84197
2.81414
2.784
2.74877
2.71234
2.65984
4.22314
4.34413
3.86267
3.76333
3.82995
3.91213
3.96531
3.96664
3.93062
3.87378
3.8306
3.82916
3.84609
3.86817
3.88782
3.90889
3.94221
3.9866
4.03009
4.05957
4.07504
4.08733
4.10523
4.13625
4.17728
4.21813
4.24682
4.25985
4.27111
4.29711
4.34202
4.39945
4.45793
4.50521
4.53927
4.57317
4.62038
4.6795
4.73682
4.77351
4.7898
4.80251
4.82304
4.84636
4.85583
4.8428
4.82198
4.80843
4.80331
4.78615
4.74202
4.68992
4.64657
4.61406
4.57679
4.52829
4.47606
4.42739
4.38346
4.33653
4.28005
4.21939
4.16067
4.10594
4.05131
3.99322
3.93411
3.87379
3.81146
3.74843
3.68674
3.62925
3.58019
3.53923
3.50812
3.47822
3.44053
3.39812
3.34863
3.29162
3.23361
3.18246
3.13826
3.09745
3.05725
3.01654
2.97536
2.93529
2.89719
2.86452
2.83682
2.81554
2.79548
2.77504
2.75051
2.69287
4.62503
4.66139
4.07351
4.04115
4.18411
4.13819
4.03824
3.932
3.88274
3.87814
3.85462
3.84771
3.88756
3.9521
4.0058
4.01848
4.01311
4.02158
4.05391
4.10123
4.14235
4.15552
4.1499
4.14892
4.16657
4.20394
4.24949
4.2821
4.29291
4.29616
4.30988
4.34812
4.41295
4.48502
4.53699
4.56524
4.5868
4.61966
4.6728
4.72876
4.75776
4.76278
4.76672
4.78503
4.81461
4.82797
4.80979
4.77705
4.75522
4.75016
4.73038
4.68621
4.6429
4.60912
4.56717
4.51619
4.46168
4.41226
4.36312
4.30964
4.2558
4.20449
4.15448
4.10153
4.0434
3.98066
3.91874
3.86306
3.81248
3.76236
3.70902
3.65113
3.58995
3.53147
3.48582
3.45095
3.41646
3.38001
3.33934
3.28964
3.22992
3.16981
3.12069
3.08222
3.04719
3.01246
2.97653
2.93878
2.89791
2.85728
2.82092
2.79608
2.77486
2.75657
2.73739
2.68783
4.96714
5.03986
4.38977
4.2838
4.48897
4.39858
4.29162
4.17338
4.05674
4.0597
4.05672
3.99071
3.94516
3.96697
4.0176
4.05235
4.04129
4.01432
4.00301
4.02264
4.07299
4.12792
4.15257
4.14734
4.13726
4.14546
4.18624
4.24996
4.30301
4.32771
4.33632
4.34954
4.38588
4.45326
4.52929
4.58145
4.60959
4.63035
4.6648
4.72635
4.78747
4.81437
4.81936
4.82463
4.83593
4.84904
4.83549
4.79495
4.75825
4.74048
4.71498
4.67384
4.62739
4.5738
4.51751
4.47054
4.43237
4.39127
4.33826
4.27774
4.21985
4.16762
4.12003
4.07179
4.01877
3.95988
3.89576
3.83407
3.78264
3.73898
3.69698
3.65196
3.60092
3.5434
3.4855
3.43949
3.40488
3.37269
3.33778
3.29582
3.24319
3.18113
3.11996
3.07373
3.04114
3.0128
2.98448
2.95482
2.92095
2.88002
2.83622
2.80425
2.7805
2.75927
2.73615
2.68982
5.33185
5.41489
4.8314
4.70629
4.97972
4.95091
4.81313
4.6688
4.4337
4.28382
4.24362
4.19583
4.11216
4.04712
4.04921
4.10479
4.12101
4.10003
4.07365
4.06174
4.08652
4.14483
4.19421
4.19962
4.18479
4.17749
4.19147
4.23649
4.29817
4.34117
4.35837
4.36761
4.38879
4.43947
4.5171
4.5809
4.61598
4.6359
4.658
4.7009
4.75567
4.76756
4.75371
4.73286
4.72964
4.74688
4.74707
4.71341
4.67094
4.64066
4.60163
4.5639
4.53116
4.48986
4.44535
4.41018
4.37442
4.33096
4.28161
4.22877
4.17314
4.11931
4.0736
4.03467
3.99529
3.9468
3.88493
3.81521
3.75186
3.70493
3.66848
3.63347
3.59397
3.54489
3.48523
3.42551
3.38187
3.34891
3.31588
3.27903
3.23572
3.18353
3.12186
3.06203
3.02225
2.99638
2.97283
2.94809
2.92026
2.88425
2.8377
2.79419
2.7695
2.75311
2.73681
2.70574
5.72717
5.88098
5.44792
5.25255
5.46038
5.50616
5.30686
5.07209
4.7669
4.49177
4.40525
4.36031
4.28248
4.19402
4.18124
4.21864
4.24068
4.20492
4.16215
4.14488
4.14894
4.18394
4.23243
4.24003
4.22191
4.20958
4.20811
4.23319
4.28949
4.33358
4.34568
4.35094
4.36224
4.39115
4.44748
4.50922
4.53166
4.54898
4.56744
4.59703
4.64472
4.66815
4.67141
4.66728
4.67572
4.68582
4.674
4.65116
4.63735
4.61372
4.57282
4.54529
4.52842
4.50827
4.47916
4.4378
4.38942
4.34408
4.2993
4.25004
4.19676
4.14446
4.09726
4.05394
4.00932
3.96169
3.90568
3.83483
3.76013
3.70383
3.666
3.63329
3.59687
3.55357
3.50183
3.43886
3.37563
3.32915
3.29238
3.25636
3.21947
3.18034
3.13278
3.07142
3.01515
2.98416
2.96268
2.94179
2.91994
2.89243
2.8534
2.80014
2.76119
2.74245
2.73137
2.72511
6.29517
6.4534
6.05268
5.77567
5.93228
6.01125
5.77786
5.50127
5.18412
4.85419
4.65488
4.54633
4.42971
4.32242
4.27962
4.28347
4.2967
4.27173
4.22881
4.18935
4.16661
4.17423
4.21389
4.23541
4.22773
4.21165
4.20452
4.21105
4.2452
4.28921
4.303
4.30957
4.32094
4.34323
4.38768
4.45448
4.48756
4.5122
4.53355
4.55973
4.60139
4.64616
4.66872
4.67808
4.67909
4.66854
4.65356
4.6493
4.64775
4.61784
4.5743
4.54857
4.5306
4.5065
4.47017
4.41337
4.3502
4.30725
4.26873
4.23027
4.18858
4.13818
4.0796
4.02061
3.97136
3.92469
3.87497
3.81892
3.75618
3.69358
3.64603
3.60835
3.56981
3.53006
3.48761
3.43278
3.35944
3.29461
3.25455
3.22372
3.19594
3.16838
3.13645
3.08919
3.02241
2.97231
2.95035
2.93374
2.9159
2.89398
2.86529
2.8182
2.76644
2.74857
2.7467
2.77394
6.88438
6.90382
6.46984
6.19133
6.31905
6.41624
6.21888
5.97321
5.65667
5.28347
5.00275
4.83628
4.68932
4.56159
4.46158
4.40236
4.38299
4.36907
4.33198
4.27346
4.22379
4.21235
4.23747
4.2697
4.26644
4.24229
4.22024
4.21824
4.23829
4.28309
4.30411
4.30971
4.31728
4.3328
4.36964
4.43528
4.47356
4.49765
4.51802
4.53322
4.56373
4.60806
4.63924
4.6487
4.64116
4.62056
4.61048
4.61532
4.60876
4.57297
4.5324
4.50846
4.48322
4.44868
4.40274
4.33911
4.28098
4.24333
4.2094
4.17683
4.14037
4.09197
4.02511
3.9512
3.89886
3.8598
3.82249
3.78555
3.73729
3.66911
3.59363
3.54101
3.5107
3.48443
3.45501
3.41448
3.35568
3.28013
3.2241
3.19659
3.17654
3.15659
3.13466
3.10524
3.04489
2.97025
2.93965
2.92289
2.9072
2.89056
2.87164
2.84051
2.80176
2.78786
2.79239
2.8563
7.36615
7.22548
6.76519
6.47793
6.63738
6.76511
6.61649
6.39194
6.06692
5.67197
5.38509
5.20283
5.01723
4.83662
4.68546
4.58796
4.53255
4.50505
4.47145
4.40625
4.33531
4.30533
4.30796
4.33146
4.3249
4.29096
4.25867
4.24908
4.25502
4.28591
4.30576
4.30825
4.30846
4.31289
4.33246
4.38418
4.42397
4.44077
4.47031
4.48254
4.50286
4.54585
4.56716
4.57064
4.56245
4.54653
4.54425
4.55097
4.5328
4.4943
4.46363
4.44436
4.41804
4.37872
4.32617
4.26237
4.21298
4.1804
4.15123
4.12125
4.08634
4.03905
3.9679
3.8917
3.84109
3.80144
3.76977
3.73952
3.70271
3.64451
3.56184
3.50272
3.4682
3.43779
3.40794
3.38175
3.35084
3.30438
3.24125
3.19442
3.17194
3.1577
3.14308
3.11632
3.06722
2.99663
2.94101
2.91517
2.89972
2.89189
2.88997
2.88626
2.8834
2.88204
2.9005
2.99068
7.71197
7.44726
6.99482
6.77221
6.97123
7.08425
6.92135
6.67028
6.35717
6.0005
5.74013
5.55533
5.32761
5.06351
4.87993
4.79864
4.72137
4.64789
4.58605
4.52703
4.47347
4.42469
4.39407
4.38553
4.3767
4.34237
4.30337
4.28191
4.27006
4.27754
4.2867
4.28304
4.27859
4.27491
4.27501
4.29782
4.34317
4.35929
4.38993
4.41872
4.42901
4.45879
4.47585
4.47481
4.46699
4.46408
4.47357
4.48084
4.45537
4.40966
4.38625
4.37309
4.34833
4.3098
4.25867
4.20396
4.16294
4.13206
4.10168
4.06922
4.03338
3.98769
3.92322
3.85448
3.79944
3.76131
3.72991
3.69845
3.66543
3.62328
3.56791
3.50371
3.4456
3.40947
3.38615
3.36564
3.34421
3.31992
3.28394
3.22965
3.17795
3.14325
3.11631
3.09068
3.06242
3.02603
2.97778
2.93588
2.922
2.91808
2.92722
2.96784
3.00276
3.03573
3.08782
3.17014
7.96018
7.63209
7.24479
7.12805
7.28962
7.32842
7.13055
6.87876
6.60604
6.29578
6.01565
5.79642
5.55802
5.2667
5.05769
4.97612
4.91542
4.80667
4.67787
4.60425
4.58846
4.55692
4.49649
4.43618
4.40587
4.38369
4.34796
4.31357
4.28604
4.26775
4.25746
4.24407
4.23433
4.23064
4.22782
4.22751
4.25428
4.27212
4.28844
4.32504
4.33744
4.35672
4.38045
4.38267
4.37588
4.38077
4.39936
4.40921
4.38996
4.34581
4.32633
4.31491
4.28554
4.24996
4.21334
4.17866
4.1445
4.10547
4.06464
4.02562
3.9853
3.94049
3.89553
3.85179
3.80304
3.75102
3.7063
3.66971
3.63513
3.60204
3.56858
3.52486
3.46506
3.40931
3.37949
3.35926
3.34143
3.32239
3.29837
3.25752
3.19408
3.13407
3.09481
3.07099
3.05583
3.04135
3.02233
2.99442
2.98183
2.98306
3.00167
3.06998
3.12867
3.20616
3.28219
3.32889
8.17291
7.84554
7.55606
7.50009
7.58744
7.54075
7.35056
7.11592
6.85903
6.56335
6.24391
5.97486
5.74705
5.49384
5.25972
5.12604
5.06121
4.96632
4.82145
4.70241
4.66434
4.65353
4.59869
4.51354
4.44686
4.42308
4.39684
4.35602
4.30999
4.26896
4.24029
4.21532
4.19484
4.1835
4.17822
4.1713
4.18125
4.19695
4.19727
4.22329
4.24308
4.26094
4.29601
4.30983
4.30477
4.30897
4.32697
4.34108
4.33313
4.29844
4.2826
4.26359
4.22709
4.20342
4.18497
4.16362
4.13283
4.08776
4.0302
3.9755
3.9362
3.9071
3.88478
3.85858
3.81912
3.76093
3.69206
3.64277
3.61136
3.58572
3.55814
3.52642
3.48847
3.44151
3.38528
3.34696
3.32695
3.30856
3.28682
3.25446
3.19908
3.12702
3.084
3.06762
3.05892
3.05813
3.06497
3.06879
3.07642
3.08613
3.12486
3.19697
3.24584
3.32809
3.41116
3.44375
8.35444
8.06693
7.88112
7.84233
7.84832
7.76915
7.61596
7.39076
7.11149
6.79244
6.46184
6.17473
5.95033
5.73828
5.50866
5.30616
5.18351
5.10416
4.9969
4.87112
4.7723
4.7257
4.68682
4.61338
4.53634
4.48713
4.44588
4.4006
4.34897
4.29544
4.25254
4.21153
4.17306
4.14781
4.13426
4.12715
4.12544
4.13605
4.12746
4.13233
4.15092
4.17187
4.2139
4.24256
4.24073
4.23646
4.25051
4.26905
4.27201
4.24765
4.23438
4.2128
4.17781
4.16025
4.15044
4.12798
4.09517
4.05084
3.99291
3.9241
3.88412
3.8748
3.86683
3.84052
3.8011
3.75046
3.6786
3.61308
3.58234
3.55824
3.53098
3.50482
3.47796
3.44354
3.39196
3.33744
3.30052
3.27257
3.24634
3.21781
3.18041
3.12885
3.09047
3.08051
3.07733
3.0885
3.12182
3.16091
3.18827
3.21685
3.28241
3.32658
3.35244
3.40484
3.4672
3.51677
8.58396
8.3523
8.20383
8.12801
8.06319
8.01465
7.90213
7.66874
7.33939
6.9981
6.69381
6.43195
6.21553
5.99294
5.74391
5.52517
5.37888
5.28145
5.18775
5.05779
4.91575
4.83189
4.78846
4.73235
4.65854
4.57208
4.4959
4.44261
4.39597
4.34264
4.29027
4.23382
4.16964
4.1277
4.10176
4.0852
4.07635
4.07184
4.05933
4.04247
4.0481
4.06582
4.10376
4.1397
4.14738
4.133
4.14484
4.17473
4.18563
4.16544
4.15668
4.14872
4.12131
4.09154
4.05986
4.03526
4.01624
3.99021
3.94653
3.889
3.84235
3.80884
3.78446
3.76299
3.74082
3.70676
3.65427
3.5949
3.54519
3.51578
3.49903
3.47749
3.45235
3.42244
3.37909
3.32107
3.2694
3.23533
3.20733
3.18258
3.16196
3.14218
3.12189
3.11734
3.12021
3.14676
3.18989
3.25619
3.30873
3.36667
3.43051
3.4412
3.4488
3.47272
3.50442
3.5673
8.80212
8.61676
8.47458
8.376
8.30994
8.28483
8.14933
7.87685
7.52004
7.22056
6.98292
6.73784
6.49041
6.23541
5.96919
5.77318
5.63968
5.51873
5.39449
5.23253
5.06417
4.97359
4.92349
4.8695
4.78776
4.67195
4.55605
4.49327
4.44835
4.39618
4.33382
4.26029
4.17894
4.11299
4.07802
4.04867
4.02224
4.00414
3.9851
3.96235
3.9516
3.95949
3.98273
4.02251
4.04382
4.0325
4.02812
4.05614
4.05996
4.04594
4.05098
4.05844
4.04483
4.01714
3.97362
3.9298
3.91471
3.90103
3.88117
3.85101
3.80867
3.75984
3.71451
3.68488
3.66036
3.63465
3.60591
3.56851
3.52248
3.48354
3.45367
3.42846
3.40417
3.37729
3.34612
3.30251
3.24782
3.20981
3.18864
3.17569
3.17153
3.17384
3.17585
3.18123
3.19742
3.23267
3.28623
3.3532
3.41285
3.49224
3.54624
3.54973
3.54604
3.54786
3.55772
3.60991
9.06361
8.891
8.73692
8.59189
8.53205
8.47321
8.29509
8.02961
7.72374
7.47423
7.25766
6.99061
6.70098
6.45821
6.23408
6.05683
5.91267
5.74831
5.5759
5.407
5.24651
5.13453
5.05502
4.97773
4.87938
4.75432
4.62951
4.5511
4.49325
4.43495
4.36192
4.27756
4.19
4.112
4.05298
4.0052
3.96277
3.93261
3.91102
3.88722
3.86224
3.85605
3.85734
3.87778
3.91566
3.92348
3.91914
3.94528
3.94272
3.9201
3.9273
3.94944
3.95394
3.94125
3.90271
3.84639
3.82134
3.81447
3.8079
3.79675
3.77206
3.72659
3.66383
3.61716
3.59693
3.57949
3.55869
3.53422
3.5055
3.46601
3.4212
3.39724
3.37975
3.35863
3.33118
3.29778
3.25073
3.2165
3.20667
3.20476
3.21743
3.24545
3.27024
3.291
3.32867
3.3739
3.41946
3.45706
3.51088
3.59178
3.6468
3.6539
3.64903
3.62831
3.62046
3.66028
9.27671
9.12874
8.96395
8.80955
8.75275
8.64745
8.43766
8.18749
7.94021
7.68507
7.43934
7.15945
6.88271
6.69046
6.51936
6.32103
6.12026
5.9133
5.71875
5.57565
5.44611
5.30662
5.17486
5.06728
4.95711
4.83695
4.72271
4.61797
4.52219
4.446
4.37909
4.30066
4.2164
4.134
4.05078
3.9796
3.92793
3.88491
3.84875
3.81751
3.78196
3.76609
3.75593
3.75074
3.77603
3.791
3.79452
3.82743
3.83944
3.81529
3.81614
3.83903
3.84852
3.85238
3.83775
3.79704
3.75584
3.74285
3.74621
3.74319
3.72513
3.69416
3.63581
3.5741
3.55284
3.54528
3.5512
3.542
3.51486
3.4688
3.40695
3.37547
3.3634
3.35674
3.344
3.32032
3.29715
3.27361
3.26604
3.26787
3.2899
3.33824
3.3987
3.45542
3.50924
3.54593
3.56638
3.58686
3.62584
3.68569
3.73038
3.73556
3.72345
3.68824
3.66253
3.70592
9.48191
9.32195
9.1428
9.01115
8.94769
8.79638
8.56603
8.34152
8.11784
7.86449
7.60464
7.34233
7.11563
6.93761
6.75351
6.52041
6.26178
6.04765
5.8759
5.75802
5.63724
5.4747
5.28726
5.12392
5.00115
4.89958
4.80211
4.69971
4.58731
4.47479
4.38451
4.32359
4.26556
4.1868
4.08377
3.98252
3.90953
3.85871
3.81746
3.7685
3.71433
3.69346
3.68039
3.66349
3.66783
3.67238
3.67098
3.70011
3.73333
3.72342
3.72157
3.74272
3.74137
3.7535
3.76431
3.7546
3.72077
3.68842
3.68118
3.68403
3.67977
3.66008
3.62112
3.5612
3.52057
3.50868
3.50769
3.50884
3.49122
3.46289
3.41293
3.3632
3.34338
3.33018
3.3266
3.33686
3.33937
3.33503
3.33432
3.35313
3.39447
3.45758
3.52843
3.59445
3.66305
3.69547
3.70179
3.70581
3.71497
3.73363
3.76203
3.7677
3.7544
3.72397
3.6997
3.74372
9.62717
9.46489
9.31527
9.19835
9.07205
8.88002
8.65705
8.45741
8.27448
8.02618
7.75012
7.51798
7.3144
7.10893
6.89693
6.65044
6.43253
6.27255
6.10141
5.90409
5.72141
5.55987
5.39781
5.24071
5.12156
5.02078
4.91261
4.79389
4.66993
4.54792
4.44915
4.36036
4.26581
4.17002
4.08242
4.01123
3.94447
3.87381
3.80136
3.72219
3.66872
3.64551
3.62431
3.59412
3.57759
3.57059
3.56278
3.58007
3.61951
3.619
3.62415
3.64681
3.63848
3.6459
3.6697
3.68674
3.68327
3.65053
3.6159
3.60739
3.60852
3.60633
3.58969
3.55432
3.50259
3.47425
3.46301
3.46172
3.45762
3.43866
3.40683
3.36069
3.33505
3.32319
3.32247
3.34632
3.37959
3.39903
3.42522
3.47272
3.52866
3.59579
3.64541
3.69996
3.76249
3.79495
3.79724
3.78416
3.76617
3.76441
3.77065
3.77684
3.77025
3.75333
3.75236
3.80426
9.7144
9.57243
9.43141
9.30295
9.15281
8.98061
8.8019
8.62946
8.41584
8.14602
7.88945
7.69801
7.51682
7.27698
7.0275
6.78125
6.5774
6.42323
6.2558
6.04864
5.83167
5.64989
5.49332
5.355
5.22405
5.09066
4.9524
4.81806
4.69888
4.60251
4.51334
4.41163
4.29551
4.18221
4.09588
4.0284
3.96192
3.88224
3.78649
3.69669
3.64548
3.60842
3.56528
3.51282
3.48749
3.4784
3.46565
3.46942
3.49595
3.49401
3.50619
3.53851
3.5366
3.53757
3.56277
3.59411
3.61183
3.60403
3.56694
3.53345
3.5262
3.52969
3.53543
3.52453
3.49457
3.45119
3.42554
3.41299
3.40624
3.40181
3.38569
3.36093
3.33965
3.33217
3.3369
3.36536
3.42225
3.47612
3.54237
3.60657
3.66876
3.71095
3.7392
3.78467
3.83649
3.86473
3.863
3.84511
3.81406
3.77869
3.75655
3.75382
3.77433
3.7923
3.82056
3.8727
9.77991
9.64887
9.51628
9.37197
9.21511
9.05326
8.89021
8.71034
8.48164
8.243
8.03612
7.86558
7.63782
7.37661
7.15123
6.95607
6.75583
6.56792
6.38052
6.16964
5.95738
5.78321
5.63439
5.4892
5.33835
5.18027
5.02737
4.89684
4.78573
4.67971
4.56791
4.44641
4.32598
4.22467
4.1387
4.05398
3.9623
3.86229
3.76876
3.6988
3.64162
3.58054
3.50542
3.44382
3.41938
3.40207
3.37863
3.37074
3.37638
3.36876
3.38033
3.42034
3.43356
3.43101
3.44881
3.48397
3.51857
3.52928
3.51692
3.47742
3.45137
3.4503
3.46335
3.47446
3.46572
3.43719
3.39556
3.37098
3.35929
3.35417
3.3611
3.36309
3.36154
3.3651
3.37986
3.41807
3.48083
3.56661
3.65737
3.73122
3.78557
3.80031
3.81173
3.83265
3.85865
3.88445
3.89044
3.87887
3.84631
3.80015
3.77404
3.76822
3.78002
3.82097
3.8945
3.94061
9.84814
9.71684
9.58077
9.43762
9.2889
9.13608
8.97056
8.77791
8.56235
8.35439
8.17365
7.96771
7.71447
7.4801
7.29984
7.11011
6.88593
6.67508
6.4775
6.27951
6.0873
5.90789
5.74043
5.57786
5.41631
5.25959
5.11429
4.97897
4.8501
4.7204
4.59149
4.47179
4.36502
4.2658
4.16371
4.05462
3.94581
3.85172
3.77548
3.70482
3.62838
3.53809
3.45172
3.40003
3.36565
3.33247
3.29478
3.27553
3.26654
3.25416
3.25932
3.29706
3.33008
3.33723
3.34104
3.36603
3.40552
3.44164
3.45039
3.43372
3.39873
3.39049
3.40164
3.42026
3.42522
3.41332
3.38125
3.34479
3.3317
3.33063
3.35028
3.38095
3.40266
3.42569
3.45775
3.5084
3.58122
3.67408
3.7528
3.82981
3.86338
3.86239
3.86771
3.86997
3.86675
3.86943
3.87648
3.87563
3.8599
3.83861
3.82324
3.8188
3.82797
3.8625
3.93943
3.98119
9.91742
9.78003
9.63302
9.48343
9.3347
9.18128
9.00684
8.8133
8.62085
8.44419
8.25167
8.01421
7.78933
7.609
7.43252
7.20507
6.97403
6.7787
6.59058
6.39252
6.19671
6.00409
5.82234
5.65503
5.49616
5.34213
5.18985
5.03628
4.88596
4.74642
4.62043
4.50406
4.39123
4.27595
4.15576
4.03946
3.93971
3.8553
3.77543
3.69125
3.59771
3.50585
3.43579
3.381
3.33025
3.27809
3.23472
3.21151
3.19051
3.17009
3.16596
3.18988
3.23039
3.25211
3.25691
3.26487
3.29303
3.33681
3.37662
3.38874
3.37398
3.34939
3.35189
3.36664
3.38377
3.3842
3.37176
3.34761
3.33795
3.34321
3.36713
3.41583
3.46951
3.51101
3.57905
3.65732
3.73176
3.78902
3.832
3.88257
3.92016
3.92288
3.92559
3.919
3.90167
3.88168
3.86926
3.86547
3.87099
3.87518
3.87366
3.87668
3.89399
3.93233
3.9928
4.00806
9.9572
9.81844
9.67566
9.53534
9.39112
9.23404
9.06093
8.88203
8.70474
8.51503
8.29429
8.07768
7.89767
7.7222
7.49721
7.25827
7.06222
6.88856
6.68665
6.46914
6.26672
6.08205
5.90385
5.73322
5.56579
5.39792
5.23201
5.07321
4.92445
4.78661
4.65727
4.5302
4.40196
4.27535
4.15694
4.05094
3.95506
3.86229
3.76771
3.67249
3.58275
3.5068
3.44194
3.37855
3.31165
3.24811
3.20354
3.17208
3.14313
3.11418
3.10261
3.11096
3.13719
3.16072
3.17514
3.18271
3.1956
3.23122
3.28602
3.32973
3.34099
3.3253
3.31043
3.31733
3.33376
3.35538
3.36312
3.36129
3.36203
3.37329
3.40611
3.47269
3.5531
3.65403
3.76408
3.84051
3.86705
3.87993
3.90092
3.93081
3.96441
3.97237
3.96519
3.94793
3.92338
3.90074
3.8885
3.88265
3.88885
3.90453
3.91638
3.93038
3.95575
3.99671
4.03744
4.03517
10.0076
9.86985
9.72862
9.58583
9.43497
9.27307
9.10336
8.93084
8.74934
8.5434
8.3308
8.14192
7.96663
7.75138
7.5172
7.32178
7.15619
6.95961
6.73678
6.52128
6.33315
6.15657
5.97839
5.79603
5.61116
5.43178
5.26475
5.11086
4.96732
4.82817
4.68811
4.54798
4.41269
4.28745
4.17546
4.0734
3.97351
3.87072
3.76597
3.66683
3.58634
3.52063
3.45331
3.37895
3.30453
3.23903
3.18633
3.14432
3.1069
3.07027
3.05197
3.04945
3.05006
3.05681
3.07773
3.1002
3.1157
3.14166
3.19427
3.25107
3.28159
3.28794
3.27245
3.27184
3.28717
3.3159
3.3512
3.37579
3.40073
3.44242
3.50732
3.58875
3.68241
3.78991
3.87459
3.93278
3.96937
3.98299
3.99114
3.99352
3.99478
3.98965
3.97432
3.95365
3.93406
3.92572
3.92176
3.92049
3.92629
3.93638
3.94606
3.95722
3.97485
4.01502
4.04211
4.0332
10.0427
9.90895
9.77044
9.62593
9.47189
9.3098
9.14222
8.96785
8.77872
8.57731
8.38373
8.20196
8.00253
7.77726
7.57053
7.39837
7.21917
6.99688
6.77868
6.58254
6.39426
6.212
6.02746
5.83814
5.64973
5.47037
5.3058
5.15376
5.00645
4.85844
4.71016
4.5652
4.42896
4.30723
4.19781
4.09203
3.98503
3.87716
3.77318
3.68007
3.59772
3.52008
3.44479
3.37214
3.30472
3.24151
3.18143
3.1236
3.06671
3.02753
3.00866
2.99423
2.97618
2.95848
2.96593
3.00022
3.03734
3.05906
3.0971
3.14903
3.19494
3.22098
3.22511
3.22789
3.24637
3.28198
3.33157
3.3849
3.45165
3.53333
3.62371
3.71369
3.80039
3.86427
3.91581
3.97453
4.00845
4.02361
4.02998
4.02506
4.0059
3.98859
3.97347
3.95873
3.95178
3.95027
3.95013
3.94888
3.94764
3.94547
3.94469
3.94588
3.96695
4.01348
4.03576
4.02843
10.0758
9.94385
9.80509
9.65847
9.50347
9.34179
9.17337
8.99516
8.80636
8.61677
8.43325
8.24245
8.02988
7.81838
7.63261
7.46243
7.24742
7.02412
6.82963
6.64337
6.4476
6.25126
6.05958
5.87275
5.69234
5.51978
5.35333
5.19019
5.03127
4.87853
4.73209
4.59211
4.45894
4.33133
4.20933
4.09522
3.98883
3.88826
3.79235
3.69597
3.59697
3.5033
3.42575
3.36436
3.30828
3.24892
3.18136
3.10469
3.03192
2.99165
2.96964
2.94854
2.92203
2.88838
2.87728
2.89499
2.94279
2.9737
2.99465
3.03317
3.07489
3.12456
3.17389
3.19708
3.22069
3.26348
3.32356
3.40214
3.4978
3.59952
3.71124
3.7936
3.85201
3.90691
3.96218
4.00242
4.01521
4.0221
4.02085
4.01114
4.00084
3.99091
3.9815
3.97483
3.97104
3.97089
3.97104
3.96512
3.95614
3.9448
3.9352
3.94055
3.97416
4.01973
4.03616
4.0295
10.0993
9.96633
9.82549
9.6774
9.52288
9.36164
9.19237
9.01483
8.83326
8.65272
8.46813
8.26888
8.0624
7.86587
7.68785
7.48831
7.26418
7.05927
6.88027
6.69206
6.49105
6.28554
6.09323
5.91253
5.73858
5.56615
5.39039
5.21584
5.05117
4.89929
4.75832
4.62327
4.48751
4.34803
4.21325
4.09342
3.99026
3.89741
3.80502
3.70451
3.59675
3.49408
3.41026
3.34713
3.29434
3.23865
3.1726
3.092
3.01679
2.9693
2.93692
2.91245
2.88534
2.84519
2.82324
2.82568
2.85217
2.88395
2.9014
2.9367
2.97972
3.03236
3.10212
3.16934
3.22877
3.28895
3.36053
3.44724
3.54692
3.66423
3.76843
3.83872
3.9025
3.96104
3.99716
4.00876
4.00879
4.01258
4.01647
4.01629
4.01399
4.00682
3.99816
3.9922
3.98848
3.98959
3.98643
3.97802
3.96524
3.94979
3.94113
3.95264
3.99029
4.03104
4.04417
4.0371
10.1195
9.98418
9.84114
9.69168
9.53618
9.37406
9.20518
9.031
8.85451
8.67491
8.48611
8.28784
8.09122
7.90394
7.71321
7.50003
7.28822
7.09704
6.92176
6.72614
6.52049
6.32082
6.13285
5.95317
5.77396
5.59244
5.41164
5.23755
5.07474
4.92422
4.7824
4.64192
4.49844
4.35656
4.22187
4.09851
3.98911
3.89339
3.7997
3.70094
3.59878
3.50118
3.41266
3.33284
3.27124
3.21571
3.15272
3.08221
3.01869
2.96806
2.92395
2.88656
2.85397
2.82124
2.80328
2.79511
2.79535
2.81483
2.83329
2.86418
2.91618
2.97525
3.04931
3.14502
3.23954
3.33564
3.4372
3.53368
3.63444
3.73382
3.81275
3.88746
3.95008
3.99321
4.01099
4.01092
4.01294
4.02047
4.0307
4.03356
4.03161
4.02581
4.02137
4.018
4.01611
4.0118
4.00406
3.99116
3.97277
3.95772
3.95629
3.9747
4.02043
4.05608
4.05581
4.03604
10.1277
9.99114
9.84741
9.69765
9.54157
9.37921
9.21141
9.03932
8.86325
8.68069
8.49104
8.29911
8.10928
7.91789
7.7163
7.51146
7.31259
7.13061
6.9404
6.73513
6.54103
6.3526
6.16327
5.97546
5.78736
5.60313
5.42682
5.25988
5.10011
4.94354
4.78796
4.6372
4.49478
4.36149
4.23641
4.11758
4.00101
3.88365
3.77476
3.67853
3.59168
3.51078
3.43245
3.35205
3.26317
3.18525
3.12041
3.06795
3.02549
2.9828
2.9359
2.87622
2.82734
2.81003
2.7978
2.78661
2.77583
2.7823
2.79889
2.82579
2.87338
2.94317
3.03501
3.14669
3.26975
3.39667
3.51691
3.62602
3.72322
3.79439
3.85681
3.93288
3.9848
3.999
4.00215
4.00436
4.01319
4.02667
4.04355
4.04679
4.04275
4.03898
4.03789
4.04146
4.03918
4.03193
4.01822
3.99618
3.9778
3.97245
3.97997
4.00883
4.05595
4.08342
4.07671
4.03822
10.1377
10.0006
9.85631
9.70563
9.54824
9.3852
9.21759
9.0451
8.86614
8.68137
8.49443
8.30715
8.11538
7.91652
7.71619
7.52457
7.3435
7.15117
6.9429
6.74026
6.55526
6.37168
6.17932
5.98417
5.78993
5.60732
5.43858
5.27825
5.11838
4.95168
4.78148
4.6232
4.48706
4.36785
4.25479
4.13512
4.00002
3.86185
3.74583
3.65742
3.58574
3.51924
3.44375
3.34594
3.23636
3.14815
3.09577
3.05873
3.0242
2.98589
2.92946
2.85914
2.81181
2.7899
2.77639
2.76624
2.75761
2.76112
2.77473
2.80263
2.85227
2.929
3.03012
3.15327
3.29667
3.44366
3.57818
3.69974
3.7899
3.8521
3.9067
3.95836
4.0029
4.01964
4.02024
4.01775
4.02561
4.03741
4.05509
4.05917
4.05436
4.05063
4.0505
4.05484
4.05091
4.04229
4.02269
3.99703
3.98815
3.98828
4.00111
4.02909
4.06702
4.08614
4.07138
4.02724
)
;

boundaryField
{
    inlet
    {
        type            fixedValue;
        value           uniform 1;
    }
    outlet
    {
        type            zeroGradient;
    }
    bottom
    {
        type            symmetryPlane;
    }
    top
    {
        type            symmetryPlane;
    }
    obstacle
    {
        type            zeroGradient;
    }
    defaultFaces
    {
        type            empty;
    }
}


// ************************************************************************* //
