/*--------------------------------*- C++ -*----------------------------------*\
  =========                 |
  \\      /  F ield         | OpenFOAM: The Open Source CFD Toolbox
   \\    /   O peration     | Website:  https://openfoam.org
    \\  /    A nd           | Version:  7
     \\/     M anipulation  |
\*---------------------------------------------------------------------------*/
FoamFile
{
    version     2.0;
    format      ascii;
    class       volScalarField;
    location    "15.5";
    object      rho;
}
// * * * * * * * * * * * * * * * * * * * * * * * * * * * * * * * * * * * * * //

dimensions      [1 -3 0 0 0 0 0];

internalField   nonuniform List<scalar> 
4032
(
1.40001
1.40001
1.40001
1.40001
1.40001
1.40001
1.40001
1.40001
1.40001
1.40001
1.40001
1.43013
4.08173
5.45393
5.50849
5.58142
5.65
5.71556
5.77653
5.83158
5.87975
5.9182
5.94717
5.96776
1.40001
1.40001
1.40001
1.40001
1.40001
1.40001
1.40001
1.40001
1.40001
1.40001
1.40001
1.40282
4.02066
5.43667
5.49745
5.56988
5.6386
5.70338
5.76324
5.81665
5.86256
5.89815
5.9239
5.94221
1.40001
1.40001
1.40001
1.40001
1.40001
1.40001
1.40001
1.40001
1.40001
1.40001
1.40001
1.40008
3.87895
5.41149
5.4778
5.54829
5.61633
5.67944
5.73752
5.78915
5.83373
5.86858
5.8935
5.91248
1.40001
1.40001
1.40001
1.40001
1.40001
1.40001
1.40001
1.40001
1.40001
1.40001
1.40001
1.4
3.66096
5.3713
5.45047
5.51778
5.58489
5.64589
5.702
5.75162
5.79379
5.82458
5.84362
5.85622
1.40001
1.40001
1.40001
1.40001
1.40001
1.40001
1.40001
1.40001
1.40001
1.40001
1.40001
1.40001
3.37342
5.30868
5.41704
5.47974
5.54395
5.60007
5.65012
5.69212
5.72614
5.75182
5.76877
5.789
1.40001
1.40001
1.40001
1.40001
1.40001
1.40001
1.40001
1.40001
1.40001
1.40001
1.40001
1.40001
3.01895
5.21205
5.38638
5.44018
5.49606
5.54302
5.58452
5.61966
5.64862
5.67129
5.68138
5.67175
1.40001
1.40001
1.40001
1.40001
1.40001
1.40001
1.40001
1.40001
1.40001
1.40001
1.40001
1.40001
2.60958
5.07354
5.38714
5.42057
5.46042
5.49122
5.51452
5.5317
5.53699
5.52171
5.50133
5.4909
1.40001
1.40001
1.40001
1.40001
1.40001
1.40001
1.40001
1.40001
1.40001
1.40001
1.40001
1.40001
2.14341
4.86849
5.41005
5.40926
5.42932
5.44087
5.4426
5.43709
5.41263
5.37577
5.31246
5.26796
1.40001
1.40001
1.40001
1.40001
1.40001
1.40001
1.40001
1.40001
1.40001
1.40001
1.40001
1.40001
1.65633
4.5729
5.45224
5.39534
5.39813
5.38549
5.36192
5.32894
5.264
5.15322
4.83986
3.9057
1.40001
1.40001
1.40001
1.40001
1.40001
1.40001
1.40001
1.40001
1.40001
1.40001
1.40001
1.40001
1.41589
3.9872
5.31953
5.2997
5.32027
5.30721
5.27072
5.21103
5.10516
4.90993
4.5789
3.66398
1.40001
1.40001
1.40001
1.40001
1.40001
1.40001
1.40001
1.40001
1.40001
1.40001
1.40001
1.40001
1.39995
3.2043
5.10595
5.26759
5.28395
5.25359
5.19728
5.10554
4.96657
4.72894
4.39182
3.58277
1.40001
1.40001
1.40001
1.40001
1.40001
1.40001
1.40001
1.40001
1.40001
1.40001
1.40001
1.40001
1.39999
2.37781
4.84887
5.22916
5.21373
5.18514
5.12343
5.0098
4.84315
4.59774
4.23684
3.57699
1.40001
1.40001
1.40001
1.40001
1.40001
1.40001
1.40001
1.40001
1.40001
1.40001
1.40001
1.40001
1.4
1.61781
4.4878
5.28307
5.17309
5.10773
5.03326
4.91125
4.73694
4.4994
4.12054
3.62367
1.40001
1.40001
1.40001
1.40001
1.40001
1.40001
1.40001
1.40001
1.40001
1.40001
1.40001
1.40001
1.4
1.40754
3.68051
5.01915
5.02937
5.01084
4.93766
4.81944
4.65041
4.40934
4.0677
3.67845
1.40001
1.40001
1.40001
1.40001
1.40001
1.40001
1.40001
1.40001
1.40001
1.40001
1.40001
1.40001
1.40001
1.39989
2.57257
4.79012
5.01538
4.97539
4.88464
4.75306
4.59106
4.36067
4.07088
3.75895
1.40001
1.40001
1.40001
1.40001
1.40001
1.40001
1.40001
1.40001
1.40001
1.40001
1.40001
1.40001
1.40001
1.39998
1.64402
4.33641
5.05651
4.94666
4.83075
4.68964
4.53923
4.33669
4.10514
3.90507
1.40001
1.40001
1.40001
1.40001
1.40001
1.40001
1.40001
1.40001
1.40001
1.40001
1.40001
1.40001
1.40001
1.4
1.40775
3.3022
4.88532
4.8622
4.77323
4.65455
4.52646
4.3701
4.22314
4.13399
1.40001
1.40001
1.40001
1.40001
1.40001
1.40001
1.40001
1.40001
1.40001
1.40001
1.40001
1.40001
1.40001
1.4
1.39995
1.99374
4.64666
4.90462
4.78334
4.67702
4.58883
4.50864
4.44025
4.37625
1.40001
1.40001
1.40001
1.40001
1.40001
1.40001
1.40001
1.40001
1.40001
1.40001
1.40001
1.40001
1.40001
1.40001
1.39999
1.45354
3.68181
4.82088
4.76975
4.75219
4.7454
4.72047
4.65579
4.56909
1.40001
1.40001
1.40001
1.40001
1.40001
1.40001
1.40001
1.40001
1.40001
1.40001
1.40001
1.40001
1.40001
1.40001
1.4
1.40016
2.19711
4.56403
4.91902
4.99092
5.02363
4.96685
4.85195
4.73515
1.40001
1.40001
1.40001
1.40001
1.40001
1.40001
1.40001
1.40001
1.40001
1.40001
1.40001
1.40001
1.40001
1.40001
1.4
1.4
1.49539
3.71603
5.08172
5.28235
5.26458
5.14414
5.00589
4.88233
1.40001
1.40001
1.40001
1.40001
1.40001
1.40001
1.40001
1.40001
1.40001
1.40001
1.40001
1.40001
1.40001
1.40001
1.40001
1.4
1.40082
2.35705
5.13726
5.64281
5.50115
5.32026
5.16331
5.02631
1.40001
1.40001
1.40001
1.40001
1.40001
1.40001
1.40001
1.40001
1.40001
1.40001
1.40001
1.40001
1.40001
1.40001
1.40001
1.40001
1.40001
1.54765
4.80418
5.79618
5.54363
5.38878
5.27667
5.15977
1.40001
1.40001
1.40001
1.40001
1.40001
1.40001
1.40001
1.40001
1.40001
1.40001
1.40001
1.40001
1.40001
1.40001
1.40001
1.40001
1.40001
1.40235
4.09886
5.62156
5.46302
5.41665
5.3551
5.25375
1.40001
1.40001
1.40001
1.40001
1.40001
1.40001
1.40001
1.40001
1.40001
1.40001
1.40001
1.40001
1.40001
1.40001
1.40001
1.40001
1.40001
1.4
3.47082
5.44646
5.37574
5.35882
5.3295
5.27852
1.40001
1.40001
1.40001
1.40001
1.40001
1.40001
1.40001
1.40001
1.40001
1.40001
1.40001
1.40001
1.40001
1.40001
1.40001
1.40001
1.40001
1.4
2.98183
5.20642
5.34272
5.29908
5.27046
5.23406
1.40001
1.40001
1.40001
1.40001
1.40001
1.40001
1.40001
1.40001
1.40001
1.40001
1.40001
1.40001
1.40001
1.40001
1.40001
1.40001
1.40001
1.4
2.52425
4.98098
5.31334
5.24704
5.22838
5.19975
1.40001
1.40001
1.40001
1.40001
1.40001
1.40001
1.40001
1.40001
1.40001
1.40001
1.40001
1.40001
1.40001
1.40001
1.40001
1.40001
1.40001
1.40001
2.11649
4.87017
5.41123
5.30378
5.2602
5.21363
1.40001
1.40001
1.40001
1.40001
1.40001
1.40001
1.40001
1.40001
1.40001
1.40001
1.40001
1.40001
1.40001
1.40001
1.40001
1.40001
1.40001
1.40001
1.75494
4.70467
5.47097
5.34447
5.28828
5.23374
1.40001
1.40001
1.40001
1.40001
1.40001
1.40001
1.40001
1.40001
1.40001
1.40001
1.40001
1.40001
1.40001
1.40001
1.40001
1.40001
1.40001
1.40001
1.52856
4.46077
5.49482
5.37853
5.31599
5.25589
1.40001
1.40001
1.40001
1.40001
1.40001
1.40001
1.40001
1.40001
1.40001
1.40001
1.40001
1.40001
1.40001
1.40001
1.40001
1.40001
1.40001
1.40001
1.41205
4.18165
5.45896
5.3767
5.32307
5.27089
1.40001
1.40001
1.40001
1.40001
1.40001
1.40001
1.40001
1.40001
1.40001
1.40001
1.40001
1.40001
1.40001
1.40001
1.40001
1.40001
1.40001
1.40001
1.4001
3.88817
5.409
5.38508
5.33341
5.28939
1.40001
1.40001
1.40001
1.40001
1.40001
1.40001
1.40001
1.40001
1.40001
1.40001
1.40001
1.40001
1.40001
1.40001
1.40001
1.40001
1.40001
1.40001
1.40001
3.6442
5.37634
5.40576
5.34498
5.30363
1.40001
1.40001
1.40001
1.40001
1.40001
1.40001
1.40001
1.40001
1.40001
1.40001
1.40001
1.40001
1.40001
1.40001
1.40001
1.40001
1.40001
1.40001
1.40001
3.40981
5.35975
5.43059
5.36242
5.32307
1.40001
1.40001
1.40001
1.40001
1.40001
1.40001
1.40001
1.40001
1.40001
1.40001
1.40001
1.40001
1.40001
1.40001
1.40001
1.40001
1.40001
1.40001
1.40001
3.21141
5.33917
5.44699
5.37358
5.33393
1.40001
1.40001
1.40001
1.40001
1.40001
1.40001
1.40001
1.40001
1.40001
1.40001
1.40001
1.40001
1.40001
1.40001
1.40001
1.40001
1.40001
1.40001
1.40001
3.05654
5.30602
5.45322
5.37804
5.33896
1.40001
1.40001
1.40001
1.40001
1.40001
1.40001
1.40001
1.40001
1.40001
1.40001
1.40001
1.40001
1.40001
1.40001
1.40001
1.40001
1.40001
1.40001
1.40001
2.93987
5.27258
5.45418
5.37755
5.33864
1.40001
1.40001
1.40001
1.40001
1.40001
1.40001
1.40001
1.40001
1.40001
1.40001
1.40001
1.40001
1.40001
1.40001
1.40001
1.40001
1.40001
1.40001
1.40001
2.85284
5.24819
5.45564
5.37837
5.33959
1.40001
1.40001
1.40001
1.40001
1.40001
1.40001
1.40001
1.40001
1.40001
1.40001
1.40001
1.40001
1.40001
1.40001
1.40001
1.40001
1.40001
1.40001
1.40001
2.79817
5.22608
5.45446
5.37777
5.33898
1.40001
1.40001
1.40001
1.40001
1.40001
1.40001
1.40001
1.40001
1.40001
1.40001
1.40001
1.40001
1.40001
1.40001
1.40001
1.40001
1.40001
1.40001
1.40001
2.77665
5.20705
5.45108
5.37819
5.34123
1.6123
1.72168
1.88036
2.00902
1.99483
1.96141
1.94936
1.96071
1.98956
2.02911
2.05344
2.05914
2.05754
2.05624
2.06156
2.07224
2.08307
2.0914
2.09668
2.09957
2.10137
2.10403
2.11169
2.12577
2.14343
2.16092
2.17649
2.19019
2.20325
2.21758
2.23518
2.25744
2.28359
2.31254
2.34299
2.37188
2.3965
2.41778
2.43717
2.45626
2.47597
2.49592
2.51503
2.53218
2.5466
2.55758
2.5636
2.56386
2.55873
2.54964
2.53916
2.52784
2.5144
2.49826
2.48111
2.46537
2.45146
2.43761
2.42235
2.40639
2.39099
2.37606
2.35961
2.33971
2.31705
2.29404
2.2722
2.2519
2.2324
2.21133
2.1883
2.1648
2.14174
2.11958
2.09848
2.0786
2.06022
2.04388
2.02981
2.01449
1.99662
1.97847
1.95932
1.9376
1.91305
1.88795
1.86657
1.85022
1.83579
1.82219
1.80882
1.79539
1.78109
1.76496
1.75255
1.73333
2.30194
2.34473
2.16832
2.10942
2.06082
2.01318
2.00463
2.02123
2.03553
2.04505
2.04524
2.04101
2.03214
2.02611
2.02774
2.03658
2.05064
2.0648
2.07436
2.08006
2.08454
2.08972
2.09937
2.11449
2.13236
2.14977
2.16541
2.18039
2.19682
2.21602
2.23771
2.26082
2.28444
2.3092
2.33693
2.36792
2.39977
2.42854
2.45133
2.46947
2.48732
2.50726
2.5276
2.54424
2.55539
2.56363
2.57163
2.57797
2.57858
2.57048
2.55774
2.54622
2.53633
2.52401
2.50717
2.48874
2.47169
2.45589
2.43912
2.41997
2.39989
2.38096
2.36396
2.347
2.32717
2.30477
2.28183
2.25944
2.23813
2.21805
2.19816
2.17827
2.1592
2.1415
2.12414
2.10422
2.08361
2.06325
2.04296
2.02395
2.00657
1.99028
1.97305
1.95428
1.93373
1.91179
1.8901
1.87136
1.85562
1.84167
1.82822
1.81475
1.8001
1.783
1.76529
1.73973
2.72658
2.69412
2.36473
2.2173
2.16877
2.14389
2.1228
2.09593
2.0659
2.03492
2.01409
2.01091
2.01606
2.02487
2.03322
2.04231
2.05645
2.07508
2.09351
2.10693
2.11533
2.12302
2.13341
2.14926
2.16935
2.18986
2.20645
2.21838
2.23064
2.24943
2.27641
2.30902
2.34298
2.37369
2.40017
2.42712
2.45966
2.49702
2.53371
2.56237
2.58316
2.60228
2.6239
2.64593
2.66158
2.66708
2.66775
2.66918
2.67258
2.67074
2.65764
2.64028
2.62582
2.61508
2.60167
2.583
2.56248
2.54331
2.52598
2.50731
2.48463
2.46028
2.43685
2.41509
2.39324
2.36978
2.34568
2.32083
2.29487
2.26836
2.24221
2.21779
2.19702
2.17974
2.16668
2.15396
2.13754
2.11882
2.09681
2.07132
2.04514
2.02176
2.00127
1.98214
1.96316
1.9439
1.92432
1.90502
1.88639
1.87009
1.85599
1.84477
1.83404
1.82302
1.81016
1.78071
2.98226
2.94828
2.61401
2.51473
2.47569
2.37643
2.27331
2.18513
2.13527
2.11305
2.09188
2.0826
2.09307
2.11567
2.13683
2.14344
2.14397
2.15103
2.16815
2.19145
2.21263
2.22351
2.22828
2.23493
2.24918
2.27194
2.29879
2.32154
2.33709
2.35094
2.36982
2.39914
2.43995
2.48441
2.52134
2.54957
2.57562
2.60622
2.64502
2.68467
2.71261
2.73066
2.7477
2.76944
2.79436
2.81053
2.81175
2.80549
2.80107
2.80277
2.7984
2.78245
2.76544
2.75186
2.73416
2.71177
2.68756
2.66551
2.64348
2.61928
2.59464
2.57102
2.54804
2.52387
2.49749
2.46904
2.44083
2.41519
2.3916
2.368
2.34283
2.31569
2.28722
2.2601
2.23879
2.22228
2.20578
2.18823
2.16854
2.14442
2.11528
2.08566
2.06102
2.04136
2.02329
2.00531
1.98661
1.9668
1.94524
1.92364
1.90406
1.88994
1.87754
1.86647
1.8553
1.82778
3.17019
3.17528
2.85518
2.75122
2.77751
2.67237
2.5593
2.452
2.36039
2.33213
2.30781
2.26704
2.24075
2.24576
2.26557
2.28196
2.28017
2.27436
2.27611
2.29135
2.32111
2.35359
2.37342
2.38122
2.38709
2.401
2.42968
2.46901
2.50394
2.52793
2.54657
2.56731
2.59734
2.64082
2.68825
2.72514
2.7524
2.77661
2.80601
2.84665
2.88603
2.90963
2.9242
2.9378
2.95212
2.96544
2.96642
2.95584
2.94356
2.93847
2.93027
2.9143
2.89456
2.87085
2.84517
2.82297
2.80469
2.78525
2.76027
2.73115
2.70259
2.67645
2.65249
2.6283
2.60188
2.57269
2.54104
2.51044
2.48444
2.46191
2.44001
2.41666
2.3906
2.36177
2.33301
2.31
2.29235
2.27565
2.2573
2.23518
2.20748
2.17486
2.14249
2.11745
2.09926
2.08321
2.06704
2.04998
2.03056
2.00751
1.98307
1.9646
1.95033
1.9372
1.92321
1.89501
3.35215
3.37501
3.11111
3.01065
3.10071
3.03771
2.93396
2.83512
2.70102
2.60969
2.56889
2.52788
2.47944
2.44743
2.44822
2.4733
2.48222
2.47618
2.47065
2.4724
2.49123
2.52792
2.56053
2.57326
2.577
2.58335
2.59991
2.63107
2.67001
2.69994
2.71958
2.73609
2.75656
2.78954
2.83511
2.87335
2.89813
2.91698
2.93621
2.96428
2.99763
3.00925
3.0098
3.00678
3.01027
3.02261
3.02656
3.01658
2.99989
2.98763
2.97165
2.9559
2.94165
2.92295
2.90232
2.8858
2.86889
2.84827
2.82461
2.79862
2.77077
2.74363
2.72035
2.70023
2.67963
2.65457
2.62312
2.58776
2.55523
2.53043
2.51057
2.49131
2.46983
2.44382
2.41291
2.38227
2.35967
2.34225
2.32448
2.30441
2.28062
2.25184
2.2179
2.18485
2.16216
2.14682
2.13267
2.11774
2.10102
2.08001
2.0536
2.02889
2.0139
2.00311
1.99232
1.97143
3.54524
3.60233
3.41926
3.30297
3.38784
3.36964
3.2621
3.138
2.98388
2.84386
2.78725
2.75299
2.70664
2.66443
2.65988
2.67773
2.68876
2.67331
2.65682
2.6543
2.66068
2.68364
2.71496
2.72643
2.72669
2.72775
2.73332
2.75168
2.78638
2.81408
2.82626
2.83623
2.84839
2.86824
2.90101
2.93418
2.94895
2.96146
2.97465
2.99319
3.01989
3.03464
3.03865
3.03948
3.04657
3.05389
3.05081
3.04307
3.03801
3.02801
3.00996
2.99786
2.99034
2.98117
2.96783
2.94874
2.92614
2.90465
2.88319
2.85948
2.83358
2.80769
2.78386
2.76182
2.73925
2.71532
2.68731
2.65159
2.61341
2.58397
2.5635
2.54571
2.52611
2.50297
2.47551
2.44273
2.41013
2.38594
2.3665
2.34716
2.32689
2.30485
2.27792
2.24358
2.21198
2.19382
2.1809
2.16826
2.15499
2.13872
2.11643
2.0869
2.06456
2.0525
2.04487
2.0383
3.81277
3.87032
3.69873
3.56491
3.63396
3.64967
3.53968
3.40537
3.25099
3.08966
2.9883
2.92933
2.86875
2.81797
2.80211
2.80575
2.81307
2.80156
2.78239
2.76687
2.76017
2.76593
2.78973
2.8049
2.80675
2.80436
2.80412
2.81019
2.83162
2.85735
2.86742
2.87417
2.88317
2.89792
2.92327
2.95715
2.97473
2.98841
3.00089
3.01554
3.03713
3.05988
3.07236
3.07862
3.08131
3.07887
3.0738
3.07268
3.07281
3.06015
3.04054
3.02896
3.02107
3.01033
2.99366
2.96691
2.93671
2.91603
2.89744
2.87898
2.85892
2.8343
2.80527
2.77582
2.75127
2.72799
2.70303
2.67481
2.64294
2.61068
2.58577
2.56577
2.54521
2.52382
2.50114
2.47227
2.43421
2.40072
2.37956
2.36308
2.3481
2.33278
2.31449
2.28758
2.25034
2.22212
2.20906
2.19909
2.18846
2.17567
2.15949
2.13391
2.10486
2.09268
2.09098
2.10343
4.09133
4.08553
3.89676
3.76706
3.82131
3.85589
3.76829
3.65695
3.51095
3.33695
3.20218
3.11961
3.04732
2.9864
2.9409
2.91379
2.90502
2.8988
2.88162
2.85498
2.83415
2.83091
2.84496
2.86321
2.86417
2.85682
2.8489
2.84927
2.86147
2.88638
2.89923
2.90411
2.9096
2.91917
2.93935
2.97291
2.99317
3.00648
3.01807
3.02711
3.04299
3.06549
3.08247
3.08841
3.08626
3.07924
3.07586
3.07858
3.07611
3.06065
3.04239
3.0316
3.02034
3.00473
2.98337
2.95288
2.92459
2.90614
2.88948
2.87345
2.85552
2.83176
2.79879
2.76216
2.73596
2.7161
2.69692
2.67799
2.65345
2.61895
2.58046
2.55263
2.5359
2.52136
2.50534
2.48339
2.45197
2.41219
2.38283
2.36832
2.35781
2.34726
2.33498
2.31796
2.28391
2.24261
2.22506
2.21512
2.20595
2.19628
2.18564
2.16821
2.14559
2.13635
2.13862
2.17228
4.31611
4.24625
4.04244
3.90791
3.97408
4.02188
3.95644
3.85718
3.71315
3.53699
3.40714
3.32326
3.23666
3.15222
3.08122
3.03413
3.00701
2.99371
2.97788
2.9472
2.91438
2.90159
2.90398
2.91681
2.91483
2.90096
2.88812
2.88525
2.88928
2.90643
2.91811
2.92121
2.92341
2.92695
2.9384
2.96617
2.98788
2.9978
3.01373
3.02134
3.03273
3.0553
3.06812
3.07075
3.06853
3.06363
3.06388
3.06775
3.05965
3.04249
3.0288
3.02025
3.00834
2.99013
2.96516
2.93415
2.90966
2.89328
2.87857
2.86347
2.846
2.82237
2.78687
2.74868
2.723
2.70271
2.68647
2.67082
2.65171
2.62174
2.57904
2.54823
2.5299
2.51339
2.49686
2.48213
2.46482
2.43935
2.40572
2.38087
2.3689
2.36121
2.3531
2.33816
2.31064
2.27131
2.2402
2.22546
2.21653
2.21178
2.21014
2.20742
2.2047
2.20328
2.21321
2.26183
4.48171
4.36085
4.16392
4.0523
4.13398
4.1726
4.10149
3.99164
3.85427
3.69721
3.58153
3.49862
3.39575
3.27531
3.19081
3.15294
3.11643
3.08153
3.05241
3.02502
2.99953
2.97627
2.96252
2.95991
2.9568
2.94167
2.92487
2.91666
2.91263
2.91756
2.92364
2.92378
2.92443
2.92563
2.92756
2.94081
2.96582
2.97575
2.99232
3.00787
3.01483
3.0316
3.04295
3.04347
3.0419
3.04319
3.04987
3.05403
3.0424
3.02173
3.01142
3.00561
2.99433
2.97643
2.9519
2.92484
2.90414
2.88828
2.87257
2.85579
2.83739
2.81412
2.78128
2.74608
2.71776
2.69816
2.68202
2.6658
2.64855
2.62618
2.59688
2.56328
2.53266
2.51306
2.5
2.48857
2.4766
2.46298
2.44301
2.4133
2.38491
2.36557
2.35062
2.33632
2.32041
2.29954
2.27216
2.2487
2.24022
2.23769
2.24234
2.26433
2.28299
2.30041
2.32831
2.37157
4.61727
4.46714
4.29813
4.22789
4.29067
4.29691
4.20997
4.09881
3.97847
3.84179
3.71814
3.62024
3.51258
3.37998
3.28447
3.24723
3.21942
3.16953
3.1101
3.0762
3.0693
3.05451
3.02592
2.99897
2.98663
2.97757
2.96194
2.94715
2.93591
2.92916
2.92613
2.92165
2.91992
2.92162
2.92376
2.92565
2.94099
2.95274
2.96291
2.98262
2.99127
3.00342
3.01831
3.02114
3.02009
3.02471
3.03676
3.04236
3.03373
3.01381
3.00521
3.00002
2.98602
2.96926
2.95173
2.93454
2.91711
2.89676
2.87524
2.85461
2.83343
2.81005
2.78651
2.76361
2.73819
2.71108
2.68777
2.66869
2.65059
2.63318
2.61542
2.59188
2.55952
2.52917
2.51262
2.50122
2.49108
2.4802
2.4667
2.44413
2.40883
2.37526
2.35299
2.33908
2.32988
2.32097
2.30983
2.29375
2.2853
2.28571
2.29546
2.33192
2.36308
2.40405
2.44492
2.4693
4.75083
4.59606
4.46433
4.42125
4.44637
4.41988
4.33074
4.22633
4.11265
3.98136
3.83963
3.71897
3.61525
3.4995
3.39273
3.33201
3.30256
3.25918
3.19234
3.13761
3.12118
3.11685
3.09154
3.05249
3.02343
3.01463
3.00412
2.98632
2.96625
2.94888
2.93754
2.92798
2.92104
2.9191
2.92048
2.92081
2.92765
2.93894
2.94213
2.95692
2.96949
2.98132
3.00169
3.01115
3.01033
3.01432
3.02632
3.03483
3.03127
3.01525
3.00876
3.00021
2.98219
2.97046
2.96157
2.95118
2.93552
2.91205
2.88179
2.85267
2.83108
2.81487
2.8026
2.78863
2.76805
2.73771
2.70132
2.67502
2.65816
2.64441
2.62957
2.6124
2.59164
2.5658
2.53497
2.51344
2.5017
2.49085
2.47823
2.45988
2.42876
2.38815
2.36311
2.35299
2.34707
2.34588
2.34887
2.3495
2.35226
2.3567
2.37692
2.41492
2.44058
2.48443
2.52984
2.54741
4.88362
4.74142
4.64829
4.61265
4.60115
4.55642
4.48301
4.38183
4.25646
4.11348
3.96531
3.83566
3.73328
3.63628
3.53128
3.43848
3.38211
3.34529
3.29557
3.23767
3.19289
3.17274
3.15593
3.12263
3.08827
3.06756
3.05025
3.03077
3.00827
2.98511
2.96755
2.95085
2.93509
2.92587
2.92275
2.92304
2.9251
2.93425
2.93404
2.93803
2.94958
2.96289
2.987
3.00421
3.00438
3.00374
3.01309
3.02465
3.02644
3.01505
3.00993
3.00023
2.9831
2.97417
2.96905
2.95736
2.9402
2.91701
2.88682
2.85077
2.82834
2.82182
2.81623
2.80135
2.78038
2.75383
2.71599
2.68107
2.66429
2.65089
2.63555
2.62086
2.60598
2.58733
2.55932
2.52902
2.50787
2.49157
2.47608
2.45915
2.43717
2.40755
2.38536
2.37809
2.3756
2.38103
2.3978
2.417
2.43031
2.44491
2.47964
2.5026
2.51603
2.54431
2.57898
2.60653
5.03081
4.91441
4.83607
4.78284
4.74084
4.70804
4.65288
4.54491
4.39559
4.24223
4.10495
3.98566
3.88664
3.78516
3.67093
3.57
3.50218
3.45689
3.41371
3.35368
3.28795
3.25062
3.23238
3.2077
3.17426
3.13504
3.10101
3.07795
3.05811
3.03515
3.01297
2.98877
2.96002
2.94185
2.93162
2.92595
2.92478
2.9258
2.92313
2.91703
2.92073
2.93167
2.95368
2.97413
2.97886
2.97265
2.98008
2.99725
3.00326
2.99317
2.98988
2.98684
2.97391
2.95922
2.94289
2.92972
2.91921
2.90499
2.88181
2.85162
2.82679
2.8082
2.79382
2.78103
2.76809
2.74908
2.72085
2.68936
2.66299
2.64697
2.63739
2.6251
2.6108
2.59405
2.57006
2.53793
2.50896
2.48949
2.47313
2.45821
2.44522
2.43305
2.42013
2.41598
2.41681
2.4303
2.45256
2.48725
2.51495
2.54578
2.57936
2.58407
2.58766
2.60075
2.6189
2.65457
5.14614
5.06134
4.99239
4.93295
4.89286
4.87086
4.80408
4.67731
4.51663
4.38179
4.27279
4.16033
4.04747
3.93144
3.80928
3.71852
3.65667
3.60086
3.54373
3.46854
3.38983
3.34868
3.32728
3.30355
3.26598
3.21201
3.15829
3.13063
3.11172
3.08897
3.06058
3.02635
2.98807
2.95707
2.94112
2.92778
2.91619
2.90884
2.90101
2.89119
2.8868
2.89163
2.90531
2.92701
2.93759
2.93188
2.93034
2.94608
2.94839
2.94106
2.94377
2.94808
2.94149
2.92784
2.90566
2.88308
2.87512
2.86754
2.85629
2.83951
2.81677
2.79091
2.76663
2.75004
2.73574
2.72074
2.7043
2.68407
2.65995
2.63986
2.62444
2.61068
2.59667
2.58083
2.5627
2.53799
2.50741
2.48591
2.47376
2.46634
2.46364
2.46456
2.46404
2.46552
2.47351
2.49244
2.52145
2.55774
2.59006
2.63257
2.6599
2.66106
2.65897
2.66011
2.6662
2.69688
5.21878
5.16434
5.10865
5.04768
5.0166
4.98512
4.90147
4.78058
4.64305
4.52963
4.42942
4.308
4.17792
4.06821
3.96537
3.88322
3.817
3.74152
3.66183
3.5835
3.50821
3.45518
3.41847
3.38347
3.3376
3.27771
3.2182
3.18243
3.15674
3.13037
3.09547
3.0533
3.00919
2.97042
2.94126
2.9173
2.89511
2.8794
2.86867
2.85689
2.84448
2.8409
2.84139
2.85219
2.87061
2.8732
2.87071
2.88452
2.88322
2.87132
2.87495
2.8862
2.8885
2.88181
2.86204
2.8331
2.82025
2.81692
2.81337
2.80686
2.79321
2.76918
2.73613
2.71108
2.69985
2.69015
2.67882
2.66587
2.65102
2.6308
2.6075
2.59496
2.58529
2.57328
2.55805
2.53964
2.51337
2.49396
2.48898
2.48835
2.49597
2.51234
2.52581
2.53662
2.55695
2.58209
2.60733
2.62784
2.65686
2.69977
2.72807
2.73158
2.72894
2.71776
2.71386
2.73759
5.20352
5.18073
5.14343
5.10181
5.09071
5.05475
4.96834
4.86281
4.75705
4.64399
4.53426
4.41044
4.28824
4.20177
4.12359
4.03277
3.94107
3.84703
3.75775
3.6914
3.63004
3.56246
3.49804
3.44638
3.39459
3.33752
3.2825
3.23157
3.1842
3.14649
3.11407
3.07521
3.03155
2.98791
2.94365
2.90563
2.87721
2.85319
2.83294
2.81508
2.79543
2.78486
2.77682
2.77271
2.78495
2.79074
2.79126
2.80701
2.81282
2.8
2.80023
2.81169
2.81672
2.81895
2.81177
2.79107
2.77012
2.76412
2.76637
2.76516
2.75608
2.73999
2.70899
2.67639
2.66603
2.6629
2.66691
2.66307
2.64968
2.62542
2.59268
2.57708
2.57163
2.56892
2.56288
2.55067
2.53842
2.52604
2.52318
2.52446
2.53734
2.56529
2.59971
2.6314
2.66119
2.68165
2.69292
2.70389
2.72453
2.75628
2.78005
2.78288
2.77655
2.75772
2.74405
2.76891
5.18009
5.15444
5.1173
5.0942
5.09476
5.05686
4.97915
4.89825
4.81296
4.71074
4.60327
4.49312
4.39564
4.31791
4.23745
4.13483
4.01943
3.92227
3.84228
3.78582
3.72875
3.65243
3.56248
3.48301
3.42381
3.37414
3.32537
3.27354
3.2165
3.15865
3.11116
3.07878
3.04754
3.00504
2.94962
2.89506
2.85519
2.82641
2.80231
2.77422
2.74334
2.72932
2.71988
2.70719
2.70803
2.70791
2.70507
2.7177
2.73332
2.72766
2.7263
2.73663
2.7363
2.74329
2.74967
2.74527
2.72904
2.71335
2.71035
2.71243
2.71075
2.70126
2.68189
2.65154
2.63152
2.6267
2.62743
2.62951
2.62211
2.60848
2.58312
2.55811
2.5495
2.54439
2.54363
2.55007
2.55268
2.55267
2.55415
2.56524
2.58906
2.62522
2.66551
2.70266
2.74086
2.75914
2.7626
2.76458
2.7694
2.77949
2.79539
2.79892
2.7926
2.77708
2.76418
2.78853
5.1737
5.13195
5.09661
5.0754
5.05142
5.00036
4.93286
4.87051
4.81146
4.72171
4.61612
4.52565
4.44465
4.36135
4.27441
4.17053
4.07625
4.00448
3.92573
3.83378
3.74833
3.67299
3.59638
3.52032
3.46091
3.41
3.35536
3.29525
3.23249
3.17003
3.11765
3.06992
3.01948
2.96838
2.92151
2.88268
2.84588
2.80685
2.76663
2.72286
2.69193
2.67707
2.6638
2.64561
2.63345
2.62702
2.62047
2.62768
2.64555
2.64438
2.64651
2.65765
2.65365
2.65785
2.67093
2.68092
2.67983
2.66425
2.64772
2.64442
2.64582
2.64577
2.63892
2.6226
2.59727
2.58405
2.58001
2.5814
2.58179
2.57471
2.56007
2.53721
2.52595
2.52241
2.52304
2.53797
2.55902
2.57246
2.58879
2.61571
2.64732
2.68551
2.71412
2.74462
2.77919
2.79809
2.79978
2.79359
2.78522
2.78511
2.78923
2.79321
2.79054
2.78232
2.78187
2.80955
5.18261
5.13305
5.08687
5.04844
5.00373
4.95225
4.89901
4.84838
4.78057
4.68716
4.59548
4.52802
4.46355
4.37152
4.27241
4.17161
4.08554
4.01957
3.94682
3.85445
3.75474
3.66953
3.59555
3.5291
3.46509
3.40017
3.33255
3.26577
3.2052
3.15579
3.1101
3.05753
2.9972
2.93803
2.89225
2.85587
2.81976
2.77661
2.72495
2.67613
2.64694
2.62543
2.60114
2.57199
2.55584
2.54876
2.53946
2.54056
2.55244
2.55046
2.55635
2.5728
2.57189
2.57274
2.58676
2.60397
2.61363
2.61008
2.59227
2.57657
2.57418
2.57727
2.58175
2.57794
2.56496
2.54447
2.53317
2.52895
2.5281
2.52871
2.5232
2.51235
2.50383
2.50299
2.50656
2.52461
2.55899
2.59074
2.62787
2.66324
2.69827
2.72325
2.73975
2.76461
2.79356
2.81031
2.81028
2.80333
2.78956
2.77236
2.76099
2.75958
2.77065
2.78047
2.79578
2.82346
5.19786
5.1443
5.09255
5.03814
4.98083
4.92405
4.8695
4.81026
4.73243
4.6501
4.5793
4.52248
4.44071
4.34218
4.2549
4.17848
4.09775
4.01999
3.94071
3.84921
3.75487
3.67605
3.60794
3.54075
3.47029
3.39582
3.32286
3.25954
3.20467
3.15164
3.09571
3.03476
2.97396
2.92223
2.87783
2.83389
2.78623
2.73395
2.68451
2.64684
2.61565
2.58246
2.54206
2.50846
2.49379
2.48305
2.46926
2.46349
2.46534
2.4605
2.46627
2.48699
2.49406
2.49288
2.50241
2.52154
2.54072
2.54665
2.5405
2.52135
2.50966
2.51012
2.51849
2.52564
2.52264
2.51057
2.49127
2.48064
2.4767
2.47626
2.48256
2.48647
2.48967
2.4936
2.50312
2.52605
2.56224
2.60967
2.65848
2.69881
2.72974
2.73949
2.74651
2.75878
2.77496
2.79048
2.79465
2.79103
2.7771
2.75458
2.74127
2.73807
2.7442
2.76591
2.80448
2.8292
5.21682
5.16282
5.107
5.0495
4.99151
4.93388
4.87324
4.80278
4.72391
4.64842
4.58401
4.5095
4.41429
4.32495
4.25701
4.18421
4.09502
4.00868
3.9264
3.84278
3.76032
3.68223
3.60819
3.53517
3.46163
3.38953
3.3221
3.25846
3.19721
3.13471
3.07194
3.01337
2.96088
2.9118
2.86087
2.80598
2.75097
2.70306
2.66376
2.62699
2.58691
2.53945
2.49384
2.46584
2.4468
2.42841
2.40771
2.3966
2.39073
2.38328
2.38578
2.40511
2.42227
2.42581
2.42754
2.44074
2.46253
2.48253
2.48748
2.47908
2.46225
2.45921
2.46624
2.4771
2.48029
2.47571
2.4615
2.44462
2.43954
2.44002
2.45245
2.47196
2.48618
2.50031
2.51861
2.54665
2.58622
2.63582
2.67759
2.71869
2.7387
2.73885
2.74261
2.74595
2.74749
2.75081
2.75581
2.75672
2.75091
2.74152
2.73462
2.7328
2.73774
2.7563
2.79612
2.81869
5.23891
5.18511
5.12659
5.06727
5.00887
4.94909
4.88115
4.80588
4.73123
4.66361
4.5904
4.49859
4.41137
4.34215
4.27516
4.18563
4.09219
4.01292
3.93606
3.85364
3.77064
3.68781
3.60892
3.53542
3.46471
3.39552
3.32654
3.25601
3.18602
3.12047
3.06086
3.00527
2.95103
2.89538
2.83691
2.77967
2.72992
2.68755
2.64735
2.60465
2.55672
2.50924
2.47236
2.44318
2.41617
2.38852
2.36523
2.35248
2.34086
2.32915
2.3266
2.33861
2.35905
2.37023
2.37264
2.37659
2.39112
2.41443
2.43622
2.44299
2.43582
2.42399
2.42605
2.43488
2.44451
2.44501
2.43973
2.42907
2.42565
2.42909
2.44325
2.47096
2.50022
2.52258
2.55835
2.59935
2.63862
2.66903
2.69175
2.71831
2.73862
2.74032
2.74274
2.74156
2.73556
2.72715
2.72212
2.72158
2.7259
2.72896
2.72931
2.73133
2.7408
2.76129
2.79322
2.80209
5.25379
5.20125
5.14619
5.09157
5.0352
4.97348
4.905
4.83416
4.76423
4.68952
4.60207
4.51609
4.44543
4.37754
4.28819
4.1911
4.11131
4.04128
3.95847
3.86711
3.78092
3.70181
3.6251
3.55112
3.47765
3.4029
3.3281
3.25586
3.18761
3.12389
3.06367
3.00397
2.94314
2.88245
2.82525
2.77372
2.72672
2.68083
2.63368
2.58581
2.54024
2.50108
2.46729
2.43434
2.39942
2.36622
2.34261
2.32561
2.30994
2.29402
2.28734
2.29148
2.3047
2.31684
2.32445
2.32829
2.33458
2.3526
2.38107
2.40452
2.41052
2.40254
2.39524
2.3994
2.40894
2.42057
2.42468
2.42465
2.42584
2.43264
2.45079
2.48586
2.52734
2.57845
2.63406
2.67313
2.68756
2.69482
2.70587
2.72143
2.73884
2.74324
2.74046
2.73354
2.72319
2.71341
2.70837
2.70623
2.71012
2.71856
2.72518
2.73299
2.7466
2.76771
2.78997
2.78954
5.27369
5.22252
5.16938
5.11492
5.05677
4.99381
4.92735
4.85946
4.78774
4.70607
4.62151
4.54662
4.47728
4.39103
4.29564
4.21587
4.1489
4.06825
3.975
3.88385
3.80409
3.72877
3.65197
3.57254
3.49109
3.41114
3.33598
3.26632
3.20092
3.13693
3.07185
3.00617
2.94216
2.88228
2.82826
2.77881
2.73023
2.67976
2.62764
2.57783
2.5371
2.50371
2.46914
2.43058
2.39202
2.35784
2.32993
2.30739
2.2873
2.26774
2.25792
2.25647
2.2566
2.26012
2.27119
2.28304
2.29089
2.30391
2.33086
2.36006
2.37585
2.37916
2.37102
2.37077
2.37888
2.39424
2.41256
2.42536
2.43823
2.45991
2.49346
2.53476
2.58169
2.63545
2.67773
2.70662
2.72498
2.73199
2.73629
2.73837
2.73964
2.73743
2.7304
2.72115
2.71258
2.70937
2.7081
2.70792
2.71142
2.71689
2.72252
2.72893
2.73847
2.75823
2.77393
2.77035
5.28553
5.23657
5.18529
5.13105
5.07249
5.01019
4.94519
4.87706
4.80286
4.72359
4.64705
4.57496
4.49543
4.40463
4.32087
4.25115
4.17783
4.08557
3.9941
3.91162
3.83188
3.75372
3.6737
3.59085
3.5077
3.42791
3.35414
3.28542
3.21819
3.14995
3.08091
3.01283
2.94836
2.89032
2.83771
2.78638
2.73394
2.68067
2.62897
2.58236
2.54088
2.50151
2.46283
2.42502
2.38993
2.35694
2.32532
2.29468
2.26459
2.24394
2.23401
2.22639
2.21682
2.20738
2.21134
2.22957
2.24912
2.2603
2.27997
2.30685
2.33069
2.34409
2.34597
2.34705
2.35623
2.3743
2.39998
2.42721
2.46092
2.50213
2.54748
2.59228
2.63531
2.66685
2.69197
2.7207
2.7374
2.7448
2.74808
2.74596
2.73691
2.72854
2.72128
2.71449
2.71169
2.71128
2.71153
2.71147
2.7115
2.71112
2.71182
2.71286
2.72368
2.74603
2.75952
2.75696
5.29202
5.24461
5.1941
5.13998
5.08194
5.02062
4.95609
4.88731
4.81402
4.73987
4.66768
4.59235
4.50796
4.42328
4.34844
4.27942
4.19139
4.09908
4.01812
3.93988
3.85667
3.77234
3.6893
3.60767
3.52817
3.45147
3.37683
3.30299
3.23039
3.15995
3.09183
3.02617
2.9632
2.90234
2.84354
2.78796
2.73561
2.68573
2.63796
2.58968
2.53963
2.49167
2.45175
2.42001
2.39081
2.35982
2.32445
2.28421
2.24589
2.22464
2.21302
2.20187
2.18778
2.16975
2.16375
2.17323
2.19875
2.21515
2.22619
2.24651
2.26842
2.2944
2.32
2.33167
2.3435
2.36519
2.39587
2.43584
2.48418
2.53506
2.59047
2.63112
2.65983
2.68652
2.71323
2.73285
2.73872
2.74153
2.74086
2.73597
2.73079
2.72597
2.72143
2.71835
2.71681
2.71689
2.71709
2.71443
2.71049
2.70582
2.70195
2.7048
2.72177
2.74373
2.754
2.7518
5.29245
5.24553
5.19513
5.14138
5.08447
5.02426
4.96029
4.89252
4.82256
4.75242
4.68025
4.60191
4.5202
4.44183
4.37038
4.28972
4.1984
4.11412
4.03991
3.961
3.87576
3.7878
3.70475
3.62599
3.54945
3.4729
3.39417
3.31527
3.24016
3.17027
3.10483
3.04157
2.97739
2.91078
2.84575
2.78731
2.73651
2.69041
2.64422
2.59361
2.53893
2.48644
2.4433
2.41068
2.38329
2.35422
2.31968
2.27746
2.23784
2.2127
2.19552
2.18254
2.16808
2.14652
2.13464
2.13593
2.15019
2.16728
2.17662
2.19549
2.21838
2.2462
2.28282