/*--------------------------------*- C++ -*----------------------------------*\
  =========                 |
  \\      /  F ield         | OpenFOAM: The Open Source CFD Toolbox
   \\    /   O peration     | Website:  https://openfoam.org
    \\  /    A nd           | Version:  7
     \\/     M anipulation  |
\*---------------------------------------------------------------------------*/
FoamFile
{
    version     2.0;
    format      ascii;
    class       volScalarField;
    location    "15.5";
    object      T;
}
// * * * * * * * * * * * * * * * * * * * * * * * * * * * * * * * * * * * * * //

dimensions      [0 0 0 1 0 0 0];

internalField   nonuniform List<scalar> 
4032
(
1
1
1
1
1
1
1
1
1
1
1
1.03015
2.31281
2.71385
2.72586
2.74075
2.7544
2.76718
2.77892
2.78958
2.79916
2.80701
2.81284
2.81676
1
1
1
1
1
1
1
1
1
1
1
1.0024
2.29301
2.71063
2.72395
2.73874
2.75239
2.765
2.77647
2.78676
2.79585
2.80314
2.80835
2.81186
1
1
1
1
1
1
1
1
1
1
1
1.00003
2.251
2.70619
2.72092
2.73542
2.74891
2.76105
2.77199
2.78174
2.79043
2.79752
2.80264
2.80634
1
1
1
1
1
1
1
1
1
1
1
1
2.18327
2.69746
2.71683
2.73113
2.74438
2.75588
2.76614
2.77519
2.78314
2.78926
2.79316
2.79558
1
1
1
1
1
1
1
1
1
1
1
1
2.08594
2.6801
2.71068
2.72484
2.73783
2.74843
2.7574
2.76475
2.77077
2.77531
2.77799
2.7812
1
1
1
1
1
1
1
1
1
1
1
1
1.95285
2.64839
2.69767
2.71343
2.72717
2.73745
2.74554
2.75186
2.75677
2.75961
2.75808
2.75217
1
1
1
1
1
1
1
1
1
1
1
1
1.77387
2.59236
2.67729
2.69812
2.71406
2.72455
2.73123
2.73483
2.7352
2.73057
2.72141
2.71315
1
1
1
1
1
1
1
1
1
1
1
1
1.51801
2.49087
2.64911
2.67667
2.69547
2.70697
2.71308
2.71394
2.70977
2.70236
2.69596
2.7066
1
1
1
1
1
1
1
1
1
1
1
1
1.17032
2.35863
2.62907
2.6462
2.66574
2.67971
2.68664
2.68595
2.67741
2.65714
2.60827
2.51311
1
1
1
1
1
1
1
1
1
1
1
1
1.00812
2.2401
2.60732
2.60963
2.62569
2.64196
2.65087
2.64955
2.63801
2.60497
2.54959
2.40449
1
1
1
1
1
1
1
1
1
1
1
1
1
2.00827
2.57852
2.59537
2.60608
2.61152
2.6152
2.61107
2.59682
2.55965
2.49896
2.33027
1
1
1
1
1
1
1
1
1
1
1
1
0.999998
1.61746
2.47778
2.5762
2.58215
2.58441
2.58255
2.57339
2.55425
2.51759
2.45071
2.29687
1
1
1
1
1
1
1
1
1
1
1
1
0.999999
1.117
2.31199
2.57652
2.56346
2.55911
2.55227
2.53778
2.51442
2.47825
2.40777
2.29906
1
1
1
1
1
1
1
1
1
1
1
1
1
1.0037
2.12198
2.51598
2.53136
2.53122
2.52282
2.50643
2.48088
2.44091
2.37658
2.29574
1
1
1
1
1
1
1
1
1
1
1
1
1
0.999975
1.67139
2.40211
2.50987
2.50842
2.49912
2.48106
2.45595
2.41527
2.35763
2.29536
1
1
1
1
1
1
1
1
1
1
1
1
1
0.999993
1.1261
2.21862
2.48878
2.48022
2.4715
2.45497
2.43279
2.39674
2.35429
2.3095
1
1
1
1
1
1
1
1
1
1
1
1
1
0.999999
1.0037
1.93664
2.40918
2.44535
2.44008
2.42964
2.41308
2.39
2.36818
2.35009
1
1
1
1
1
1
1
1
1
1
1
1
1
1
0.99999
1.32381
2.23884
2.41935
2.40864
2.40542
2.405
2.40286
2.39988
2.3938
1
1
1
1
1
1
1
1
1
1
1
1
1
1
0.999997
1.02515
2.02019
2.371
2.37283
2.38682
2.40953
2.42548
2.42409
2.4182
1
1
1
1
1
1
1
1
1
1
1
1
1
1
0.999999
1.0001
1.41713
2.21291
2.35495
2.40334
2.43561
2.44424
2.43702
2.42698
1
1
1
1
1
1
1
1
1
1
1
1
1
1
1
1
1.0452
2.02505
2.35761
2.42013
2.44623
2.43664
2.42741
2.41982
1
1
1
1
1
1
1
1
1
1
1
1
1
1
1
1
1.00039
1.50815
2.32547
2.45615
2.44372
2.42765
2.41617
2.40684
1
1
1
1
1
1
1
1
1
1
1
1
1
1
1
1
1
1.08273
2.34075
2.51097
2.45895
2.43094
2.41527
2.4017
1
1
1
1
1
1
1
1
1
1
1
1
1
1
1
1
1
1.00117
2.26818
2.57292
2.51498
2.47353
2.44162
2.41464
1
1
1
1
1
1
1
1
1
1
1
1
1
1
1
1
1
0.999999
2.11555
2.63969
2.59572
2.54662
2.50195
2.46254
1
1
1
1
1
1
1
1
1
1
1
1
1
1
1
1
1
1
1.96027
2.65716
2.64462
2.61021
2.57175
2.53104
1
1
1
1
1
1
1
1
1
1
1
1
1
1
1
1
1
1
1.75913
2.61813
2.66012
2.63968
2.6195
2.59173
1
1
1
1
1
1
1
1
1
1
1
1
1
1
1
1
1
1
1.51557
2.52813
2.67763
2.65635
2.64344
2.62533
1
1
1
1
1
1
1
1
1
1
1
1
1
1
1
1
1
1
1.26416
2.42735
2.67063
2.65069
2.64341
2.63479
1
1
1
1
1
1
1
1
1
1
1
1
1
1
1
1
1
1
1.11452
2.38112
2.67809
2.65732
2.64914
2.64192
1
1
1
1
1
1
1
1
1
1
1
1
1
1
1
1
1
1
1.01226
2.32393
2.68774
2.67135
2.66086
2.65149
1
1
1
1
1
1
1
1
1
1
1
1
1
1
1
1
1
1
1.00006
2.24709
2.69216
2.68488
2.67129
2.66059
1
1
1
1
1
1
1
1
1
1
1
1
1
1
1
1
1
1
1
2.16955
2.69076
2.68864
2.67364
2.66402
1
1
1
1
1
1
1
1
1
1
1
1
1
1
1
1
1
1
1
2.08933
2.68632
2.6902
2.67596
2.66733
1
1
1
1
1
1
1
1
1
1
1
1
1
1
1
1
1
1
1
2.02139
2.68225
2.69477
2.67967
2.6708
1
1
1
1
1
1
1
1
1
1
1
1
1
1
1
1
1
1
1
1.97036
2.68011
2.70214
2.6862
2.67667
1
1
1
1
1
1
1
1
1
1
1
1
1
1
1
1
1
1
1
1.93
2.67722
2.70954
2.6931
2.6831
1
1
1
1
1
1
1
1
1
1
1
1
1
1
1
1
1
1
1
1.89598
2.67298
2.71504
2.69843
2.68826
1
1
1
1
1
1
1
1
1
1
1
1
1
1
1
1
1
1
1
1.87541
2.67027
2.71764
2.7011
2.69094
1
1
1
1
1
1
1
1
1
1
1
1
1
1
1
1
1
1
1
1.87008
2.66904
2.71805
2.70216
2.69235
1.92096
2.14831
2.36692
2.50913
2.56538
2.60136
2.63941
2.67573
2.70517
2.72736
2.73967
2.74088
2.73837
2.73641
2.73786
2.74189
2.74609
2.74845
2.74825
2.74562
2.74164
2.73837
2.73709
2.73792
2.73944
2.73978
2.73779
2.73359
2.72859
2.72393
2.72042
2.71828
2.71721
2.71682
2.71649
2.71515
2.71214
2.70769
2.70249
2.69738
2.6929
2.689
2.68526
2.68131
2.67705
2.67252
2.667
2.65921
2.64884
2.6378
2.62688
2.61594
2.60427
2.59164
2.5789
2.56709
2.55632
2.54569
2.5345
2.52304
2.51192
2.50116
2.48986
2.47702
2.46288
2.44862
2.435
2.42225
2.41007
2.39739
2.38393
2.37033
2.35704
2.34431
2.3323
2.32105
2.31065
2.30143
2.29356
2.28542
2.27618
2.26663
2.25643
2.24499
2.23238
2.21984
2.20928
2.20118
2.19415
2.18784
2.18201
2.17642
2.17053
2.16375
2.15857
2.14987
2.15009
2.32831
2.42508
2.50562
2.5577
2.59829
2.64379
2.68667
2.71247
2.72365
2.72631
2.72409
2.71748
2.71203
2.7111
2.71382
2.71913
2.72418
2.72645
2.7258
2.72381
2.72226
2.72228
2.72379
2.72561
2.7262
2.72482
2.72184
2.7187
2.71596
2.7133
2.7102
2.70638
2.70224
2.69879
2.69635
2.69407
2.6903
2.68391
2.67569
2.66773
2.66112
2.65521
2.64846
2.64031
2.63221
2.62567
2.61979
2.61227
2.60135
2.58974
2.57905
2.56939
2.55925
2.54788
2.53634
2.52561
2.5155
2.50505
2.49361
2.48177
2.47028
2.45948
2.44862
2.43658
2.42354
2.41039
2.39761
2.3854
2.37381
2.36244
2.35119
2.34042
2.33037
2.32061
2.30993
2.29922
2.28886
2.27869
2.26919
2.26045
2.25221
2.24357
2.23428
2.22431
2.21385
2.20364
2.19493
2.18782
2.18182
2.17632
2.171
2.16521
2.15833
2.15109
2.14044
2.16843
2.25744
2.28684
2.37617
2.47234
2.5547
2.61516
2.64958
2.66367
2.66512
2.66268
2.66587
2.67083
2.67447
2.67702
2.67955
2.6838
2.68966
2.69506
2.6975
2.69702
2.69536
2.69397
2.69431
2.69583
2.6967
2.69462
2.68837
2.68065
2.67445
2.67036
2.66747
2.66376
2.65718
2.64773
2.63789
2.62986
2.62365
2.61734
2.60811
2.59594
2.58371
2.57338
2.56428
2.55419
2.54208
2.53052
2.52206
2.51617
2.50891
2.49803
2.48682
2.47741
2.47017
2.46285
2.45437
2.44549
2.43713
2.4295
2.42139
2.41167
2.40102
2.39036
2.38018
2.36995
2.35909
2.34805
2.33681
2.32522
2.31349
2.30195
2.29101
2.28141
2.27318
2.26678
2.26073
2.25341
2.2453
2.23582
2.2248
2.21357
2.20375
2.19539
2.18776
2.18024
2.17252
2.16467
2.15715
2.15018
2.14446
2.13987
2.13673
2.13392
2.13112
2.12729
2.11715
2.1712
2.21348
2.18168
2.24979
2.36612
2.43789
2.48693
2.51922
2.54575
2.56946
2.57973
2.58658
2.6003
2.61523
2.62452
2.62471
2.62055
2.61746
2.61767
2.62006
2.621
2.61647
2.60734
2.59897
2.59349
2.59053
2.58802
2.58232
2.57162
2.5584
2.54613
2.53732
2.53208
2.52738
2.51922
2.50684
2.49321
2.48158
2.4733
2.46596
2.45553
2.44187
2.42874
2.41892
2.41218
2.40495
2.39485
2.38386
2.37671
2.37274
2.36655
2.35789
2.35047
2.34488
2.33858
2.33157
2.32418
2.31745
2.31074
2.30351
2.29633
2.28948
2.28266
2.27514
2.26659
2.25713
2.24771
2.23929
2.23176
2.22438
2.2164
2.20738
2.1974
2.18755
2.17982
2.17405
2.16842
2.1625
2.15586
2.14767
2.13773
2.12775
2.11981
2.11385
2.10848
2.10314
2.09763
2.09188
2.08565
2.07949
2.07415
2.07124
2.0691
2.06765
2.06563
2.05877
2.19357
2.22211
2.15247
2.17989
2.26267
2.30434
2.34763
2.38285
2.40615
2.43709
2.46096
2.46445
2.46491
2.473
2.48267
2.48616
2.48131
2.47106
2.4622
2.45782
2.45668
2.45544
2.44947
2.43837
2.42646
2.41719
2.41216
2.40986
2.40591
2.39675
2.38394
2.37189
2.36406
2.36086
2.3588
2.35366
2.34466
2.33468
2.32741
2.32446
2.32239
2.31649
2.30734
2.29918
2.29338
2.28927
2.28212
2.27108
2.2631
2.25856
2.25269
2.24527
2.23812
2.23047
2.2229
2.21709
2.21249
2.20727
2.20036
2.19279
2.18598
2.18001
2.17459
2.16891
2.1624
2.15488
2.14639
2.13816
2.13155
2.12623
2.12121
2.11563
2.1088
2.10045
2.09159
2.08455
2.07946
2.07492
2.07013
2.06434
2.05686
2.04776
2.03873
2.03227
2.02815
2.02473
2.02138
2.01795
2.0139
2.00848
2.00231
1.99835
1.99593
1.9941
1.99179
1.9872
2.22682
2.24618
2.17414
2.18851
2.2484
2.28175
2.29669
2.30549
2.29809
2.29812
2.31271
2.32376
2.32191
2.31508
2.31553
2.3235
2.32431
2.31811
2.30836
2.29998
2.29651
2.29547
2.29324
2.28484
2.27347
2.26392
2.25703
2.25425
2.25372
2.25103
2.24364
2.23482
2.22898
2.22807
2.23059
2.23199
2.22985
2.225
2.22096
2.2202
2.22108
2.21803
2.21118
2.2037
2.19964
2.19865
2.19587
2.18751
2.17986
2.17462
2.16792
2.1616
2.15649
2.15051
2.14432
2.13954
2.1347
2.12879
2.12216
2.11544
2.10859
2.10198
2.09644
2.09188
2.08738
2.08152
2.07346
2.06407
2.05564
2.04982
2.04571
2.04185
2.03721
2.03078
2.02218
2.01309
2.00649
2.00171
1.99711
1.99212
1.98632
1.97925
1.97061
1.96208
1.95692
1.95402
1.95153
1.94894
1.9459
1.94132
1.93455
1.9281
1.92528
1.92419
1.92316
1.92147
2.26164
2.28558
2.23064
2.22636
2.25647
2.28768
2.27756
2.26289
2.23658
2.21126
2.21271
2.21739
2.21511
2.20372
2.20076
2.20565
2.20807
2.20211
2.19324
2.18621
2.1831
2.18268
2.18251
2.17723
2.16772
2.16054
2.15539
2.15377
2.15524
2.15595
2.15266
2.14769
2.14407
2.14334
2.14632
2.15151
2.15139
2.15049
2.14964
2.15017
2.15327
2.15361
2.15227
2.14978
2.14866
2.14814
2.14488
2.13983
2.13703
2.13316
2.12693
2.12266
2.1201
2.11715
2.11294
2.10698
2.10011
2.0938
2.08763
2.08083
2.07352
2.06656
2.06051
2.05499
2.04913
2.04263
2.03474
2.02475
2.0143
2.00675
2.00211
1.99812
1.99343
1.98765
1.98043
1.97092
1.96085
1.95346
1.94775
1.94231
1.93704
1.93179
1.9254
1.91658
1.90835
1.90437
1.90186
1.89946
1.89696
1.89339
1.88751
1.87848
1.8724
1.87062
1.87001
1.87174
2.31151
2.33438
2.291
2.26821
2.28545
2.3059
2.28524
2.26167
2.23249
2.19956
2.18079
2.17281
2.16178
2.14744
2.13821
2.13735
2.13838
2.13468
2.1278
2.11976
2.11338
2.11283
2.11471
2.11401
2.10879
2.10256
2.09918
2.0979
2.09891
2.10157
2.10092
2.09919
2.09816
2.09825
2.10134
2.10889
2.11199
2.11387
2.11504
2.11692
2.12107
2.12579
2.12743
2.12736
2.12596
2.12285
2.11953
2.11836
2.11756
2.11264
2.10622
2.10237
2.09954
2.09583
2.0905
2.08255
2.07385
2.06794
2.06259
2.05711
2.05114
2.04406
2.03598
2.02783
2.02086
2.01415
2.00699
1.99884
1.9897
1.98072
1.97406
1.96888
1.96359
1.95818
1.95218
1.94393
1.93214
1.92128
1.9148
1.9099
1.90551
1.90149
1.8972
1.89059
1.88033
1.87265
1.8698
1.8677
1.86536
1.86222
1.85758
1.84895
1.84004
1.8388
1.83904
1.84628
2.35575
2.36576
2.32445
2.30097
2.3151
2.32962
2.31045
2.28675
2.25562
2.21666
2.18722
2.1704
2.15437
2.13845
2.12392
2.11523
2.11228
2.11009
2.10465
2.09559
2.08646
2.08319
2.08526
2.08773
2.08543
2.07896
2.07391
2.07266
2.07363
2.07746
2.07841
2.07761
2.07733
2.07797
2.08125
2.08867
2.09243
2.09439
2.0958
2.09657
2.09966
2.1045
2.10707
2.1073
2.10534
2.10078
2.0985
2.09885
2.09755
2.09177
2.08566
2.08202
2.07809
2.07279
2.06607
2.05724
2.04931
2.04419
2.03953
2.03504
2.02994
2.02305
2.01343
2.00268
1.99507
1.98952
1.9843
1.97902
1.97186
1.96139
1.94969
1.94209
1.93817
1.93476
1.93069
1.9249
1.91599
1.90375
1.89429
1.88962
1.88615
1.88272
1.87948
1.87551
1.86648
1.85425
1.84963
1.84733
1.84505
1.84257
1.83942
1.8341
1.82816
1.82695
1.82798
1.84085
2.38934
2.38227
2.34297
2.32071
2.33824
2.35492
2.34128
2.32003
2.28747
2.24507
2.21275
2.19182
2.17019
2.1481
2.12892
2.11697
2.11027
2.10678
2.10218
2.0931
2.08259
2.0773
2.07686
2.079
2.07727
2.07082
2.06437
2.06177
2.06178
2.06449
2.06575
2.06475
2.0633
2.06292
2.06421
2.0693
2.0729
2.07388
2.07665
2.07708
2.07866
2.08301
2.08402
2.08383
2.0816
2.07766
2.07645
2.07689
2.07407
2.06806
2.06323
2.06014
2.05604
2.05016
2.04261
2.03375
2.02711
2.02281
2.01897
2.01495
2.01015
2.00352
1.9933
1.98219
1.97487
1.96915
1.96454
1.9602
1.95489
1.94616
1.93351
1.9244
1.91925
1.91491
1.91085
1.90742
1.90325
1.89647
1.88624
1.87839
1.8746
1.87226
1.87001
1.86594
1.85841
1.84708
1.83797
1.83389
1.83152
1.8305
1.83064
1.83054
1.83098
1.8313
1.83476
1.85114
2.40908
2.39087
2.35182
2.33969
2.36086
2.37693
2.36253
2.3395
2.30914
2.27218
2.24379
2.22301
2.19647
2.16436
2.14113
2.13075
2.121
2.11164
2.10341
2.09515
2.08796
2.08133
2.07651
2.07431
2.07231
2.06663
2.05983
2.05533
2.05247
2.0526
2.05272
2.05086
2.04828
2.04568
2.04437
2.04603
2.05018
2.05092
2.0539
2.05668
2.05672
2.05909
2.05925
2.05843
2.05589
2.05368
2.05354
2.05407
2.05021
2.04305
2.03916
2.03697
2.03307
2.02717
2.01977
2.01227
2.00684
2.00289
1.99904
1.99487
1.99012
1.98385
1.97482
1.96509
1.95721
1.95164
1.947
1.94233
1.93752
1.93155
1.9235
1.91365
1.90466
1.89939
1.89625
1.89342
1.89046
1.88711
1.88192
1.87359
1.86554
1.86026
1.85604
1.85205
1.84769
1.84231
1.83478
1.82783
1.82608
1.82569
1.82761
1.83498
1.84139
1.84751
1.85669
1.87142
2.41361
2.39191
2.3598
2.36035
2.37853
2.38772
2.37123
2.34954
2.32464
2.29428
2.2651
2.24157
2.21525
2.18149
2.15584
2.14539
2.13753
2.12314
2.10573
2.09543
2.09294
2.08862
2.0804
2.07094
2.06528
2.06115
2.05512
2.0491
2.04382
2.03979
2.03698
2.03369
2.03022
2.02727
2.02444
2.02298
2.02517
2.02558
2.02633
2.03012
2.03006
2.03082
2.03182
2.03094
2.0285
2.02767
2.02819
2.02899
2.02588
2.01876
2.01546
2.01362
2.00929
2.00386
1.99839
1.99355
1.98906
1.98418
1.97914
1.97432
1.96915
1.9632
1.9572
1.95127
1.94445
1.93703
1.93054
1.92515
1.92003
1.91513
1.91022
1.90395
1.89532
1.8872
1.88302
1.88028
1.87791
1.8754
1.87203
1.86591
1.85639
1.84725
1.84138
1.83807
1.83622
1.83454
1.83186
1.82766
1.82671
1.82714
1.83073
1.84311
1.85358
1.86712
1.87944
1.88736
2.40844
2.38983
2.36957
2.37493
2.38902
2.38855
2.37623
2.35721
2.33491
2.30794
2.27665
2.24924
2.22554
2.19785
2.17042
2.1538
2.14552
2.13332
2.11445
2.09822
2.09219
2.09024
2.08251
2.07011
2.05913
2.0541
2.04905
2.04213
2.03422
2.02673
2.02088
2.01554
2.01052
2.00641
2.00294
1.99939
1.99948
1.99928
1.99726
1.99959
2.00045
2.0009
2.00368
2.00382
2.002
2.00131
2.0017
2.00259
2.00128
1.9958
1.99274
1.98954
1.98443
1.98111
1.97834
1.97517
1.97102
1.96524
1.95792
1.95106
1.9465
1.94324
1.9406
1.93716
1.9316
1.92326
1.91347
1.90649
1.90204
1.89836
1.89438
1.88983
1.88447
1.87783
1.86961
1.86428
1.86183
1.8596
1.85679
1.85223
1.84404
1.83315
1.82709
1.8252
1.82462
1.82507
1.82683
1.82861
1.831
1.83332
1.84054
1.85338
1.86194
1.87542
1.88772
1.89262
2.395
2.38193
2.37369
2.38026
2.38803
2.38715
2.3784
2.36137
2.33906
2.31178
2.28144
2.25376
2.23142
2.2093
2.18396
2.16045
2.14568
2.13609
2.12275
2.10632
2.09254
2.08526
2.07912
2.06837
2.05646
2.04788
2.04058
2.03277
2.02395
2.01454
2.00623
1.99812
1.9905
1.98469
1.98032
1.97672
1.97451
1.97341
1.96946
1.9691
1.97022
1.97126
1.97506
1.97709
1.97613
1.97456
1.97496
1.976
1.9762
1.97235
1.96954
1.96583
1.9607
1.95832
1.95707
1.95418
1.94995
1.94418
1.93642
1.92711
1.92261
1.92242
1.92228
1.91934
1.91397
1.90667
1.8962
1.88668
1.88241
1.8792
1.87565
1.87219
1.86846
1.8633
1.85548
1.84752
1.8425
1.83885
1.83552
1.83191
1.82695
1.81944
1.81384
1.81352
1.81355
1.81598
1.82274
1.83091
1.83664
1.84203
1.85325
1.86095
1.86541
1.87351
1.88218
1.88891
2.3888
2.37938
2.37494
2.37918
2.38112
2.38327
2.37767
2.36226
2.33761
2.30949
2.28294
2.25929
2.23889
2.21659
2.19059
2.16674
2.15022
2.13893
2.12756
2.11139
2.09312
2.08104
2.07397
2.06544
2.05464
2.04174
2.02975
2.02072
2.01248
2.0031
1.99351
1.98321
1.97212
1.96434
1.95881
1.95469
1.95122
1.94839
1.94418
1.94016
1.94039
1.94161
1.94513
1.94867
1.94918
1.94649
1.94719
1.95
1.95118
1.94831
1.94636
1.94461
1.94016
1.9357
1.93138
1.9283
1.92612
1.92301
1.91725
1.9093
1.90298
1.89887
1.89642
1.89434
1.89198
1.88772
1.88029
1.8714
1.8638
1.85953
1.85739
1.8546
1.85128
1.84709
1.84071
1.83201
1.82433
1.81944
1.81562
1.81255
1.81038
1.80805
1.80596
1.80643
1.80747
1.81273
1.8209
1.83282
1.84188
1.85144
1.86199
1.86438
1.86591
1.86939
1.87338
1.88137
2.39462
2.38346
2.37651
2.37716
2.37774
2.38126
2.37488
2.35769
2.33096
2.30701
2.28799
2.26737
2.24501
2.22046
2.19383
2.17358
2.15923
2.14567
2.13118
2.112
2.09151
2.07934
2.07164
2.06364
2.05234
2.03634
2.0196
2.00937
2.00137
1.99247
1.98243
1.97084
1.95796
1.94727
1.94118
1.93599
1.93099
1.92716
1.92318
1.91869
1.9164
1.91702
1.91919
1.92399
1.92722
1.92556
1.92448
1.92752
1.92782
1.92595
1.92657
1.9273
1.92514
1.92088
1.91457
1.90828
1.90622
1.90458
1.90235
1.89872
1.89301
1.88605
1.87966
1.87592
1.87318
1.87027
1.86676
1.86133
1.85398
1.84744
1.84236
1.83855
1.83537
1.83206
1.82798
1.82173
1.81341
1.80769
1.80459
1.80266
1.80228
1.80291
1.80444
1.8064
1.80974
1.81579
1.82464
1.83541
1.84475
1.85717
1.86652
1.86754
1.86707
1.86722
1.86813
1.87398
2.43143
2.41027
2.39432
2.38301
2.38108
2.37959
2.36933
2.35149
2.32892
2.31011
2.29392
2.27179
2.24547
2.22248
2.20099
2.18365
2.16866
2.15091
2.1318
2.11241
2.0937
2.08046
2.07024
2.05968
2.04673
2.03071
2.01396
2.00211
1.99274
1.98346
1.97279
1.96136
1.94937
1.93805
1.92917
1.92209
1.9163
1.91209
1.90871
1.90491
1.90093
1.90027
1.90058
1.90342
1.90968
1.91177
1.91131
1.91485
1.91447
1.91137
1.91246
1.91575
1.9164
1.91469
1.90906
1.90073
1.89696
1.89578
1.89491
1.89374
1.89062
1.88404
1.87469
1.8679
1.86518
1.86283
1.85984
1.85602
1.85126
1.84447
1.83689
1.83284
1.83022
1.82728
1.82313
1.81794
1.81073
1.80561
1.80369
1.80308
1.80468
1.80853
1.81263
1.81636
1.82254
1.82932
1.83608
1.84178
1.85003
1.86257
1.87149
1.87272
1.87203
1.86906
1.86769
1.87187
2.4959
2.46689
2.43992
2.41746
2.40711
2.39507
2.37761
2.35718
2.33681
2.31679
2.29698
2.27262
2.24703
2.22922
2.2134
2.19439
2.17413
2.15196
2.1306
2.11463
2.10041
2.08544
2.07111
2.05846
2.04442
2.02898
2.01426
2.00063
1.98828
1.97821
1.96873
1.9579
1.94718
1.93701
1.92656
1.91747
1.91127
1.90625
1.90201
1.89854
1.89408
1.89329
1.89365
1.89384
1.89822
1.9018
1.90321
1.90894
1.91097
1.90765
1.90792
1.91154
1.91284
1.91325
1.91085
1.9046
1.89818
1.89573
1.89588
1.89518
1.89225
1.88754
1.87898
1.86959
1.8657
1.86391
1.86422
1.86206
1.85714
1.84974
1.8397
1.83373
1.83105
1.82935
1.82671
1.82245
1.81847
1.81433
1.81218
1.81228
1.81524
1.82184
1.83028
1.83842
1.84615
1.85122
1.8541
1.85718
1.86314
1.87208
1.87858
1.87927
1.87746
1.8724
1.86861
1.87377
2.56264
2.53195
2.50131
2.47647
2.45877
2.4353
2.40854
2.38415
2.36133
2.33728
2.31282
2.28779
2.26632
2.2494
2.23128
2.20773
2.18104
2.15863
2.14099
2.12933
2.11657
2.09849
2.07782
2.05957
2.04499
2.03294
2.02172
2.00994
1.99666
1.98336
1.973
1.96605
1.95955
1.95057
1.93832
1.92588
1.91698
1.91133
1.90716
1.90177
1.89553
1.89456
1.89441
1.89455
1.89621
1.89864
1.89991
1.90609
1.91221
1.91109
1.91109
1.9147
1.91424
1.91555
1.91662
1.91473
1.90877
1.90312
1.90148
1.90149
1.90047
1.89694
1.8903
1.8803
1.87299
1.87009
1.86905
1.86818
1.86404
1.85858
1.84975
1.84062
1.83595
1.83237
1.83095
1.83196
1.83146
1.82908
1.82764
1.83001
1.83552
1.84389
1.85323
1.86196
1.87106
1.87511
1.87595
1.87666
1.87802
1.8806
1.88412
1.88459
1.88219
1.87736
1.87383
1.87956
2.60511
2.58204
2.55884
2.53729
2.51433
2.48624
2.45698
2.43104
2.40765
2.37979
2.3505
2.32568
2.30394
2.28198
2.25896
2.23249
2.20928
2.19295
2.1759
2.15603
2.13695
2.11921
2.10127
2.08419
2.07177
2.06133
2.04976
2.03671
2.02257
2.00854
1.99793
1.9885
1.97788
1.96675
1.95632
1.9481
1.94045
1.93219
1.92361
1.91383
1.90801
1.90646
1.90482
1.90194
1.90193
1.90286
1.90344
1.90743
1.91542
1.916
1.91717
1.92108
1.91958
1.92045
1.92352
1.92525
1.92423
1.91827
1.91194
1.90982
1.90941
1.90828
1.90441
1.89738
1.888
1.88231
1.87915
1.87744
1.87494
1.86978
1.86307
1.85439
1.84845
1.84446
1.8436
1.84591
1.84893
1.84985
1.85234
1.8587
1.86609
1.87455
1.88038
1.88731
1.89534
1.89877
1.89877
1.89643
1.89308
1.89228
1.89261
1.89302
1.89152
1.88859
1.88842
1.89567
2.6242
2.61081
2.59571
2.57984
2.56089
2.53883
2.51535
2.49182
2.4646
2.43313
2.40351
2.38013
2.35767
2.33049
2.30281
2.27581
2.2539
2.23719
2.21904
2.19698
2.17442
2.15556
2.13894
2.12435
2.11068
2.09606
2.0805
2.06546
2.05243
2.04181
2.03167
2.02003
2.00645
1.99287
1.98263
1.9748
1.96708
1.95748
1.94539
1.93391
1.92815
1.92419
1.91894
1.91213
1.91033
1.91065
1.91062
1.91186
1.91752
1.91794
1.92019
1.9255
1.92514
1.92503
1.92825
1.93235
1.9347
1.93314
1.9264
1.91994
1.91778
1.91737
1.91716
1.91407
1.9074
1.8989
1.89319
1.88941
1.8863
1.88339
1.87855
1.87288
1.86735
1.86379
1.86378
1.86624
1.87229
1.87845
1.88721
1.89589
1.90354
1.90777
1.91072
1.91657
1.92268
1.92528
1.92444
1.92028
1.91417
1.90819
1.90482
1.90441
1.90716
1.90948
1.91317
1.92027
2.63415
2.62591
2.61614
2.60429
2.59017
2.57402
2.55598
2.53511
2.50914
2.48172
2.45684
2.43492
2.40794
2.37836
2.353
2.33064
2.30814
2.28735
2.26679
2.24397
2.22121
2.20251
2.18633
2.17041
2.15363
2.13568
2.11816
2.10324
2.09071
2.07879
2.0658
2.05123
2.03648
2.02399
2.01339
2.00275
1.99095
1.97781
1.96545
1.95643
1.94915
1.94109
1.93056
1.92204
1.91963
1.91817
1.91559
1.9156
1.91737
1.9168
1.91888
1.92542
1.92738
1.92686
1.92948
1.93436
1.93882
1.9402
1.93808
1.93087
1.92533
1.92438
1.92524
1.92595
1.92339
1.91673
1.90818
1.90249
1.8989
1.89635
1.89544
1.89358
1.89027
1.8893
1.89037
1.89439
1.90192
1.91338
1.92604
1.93557
1.94151
1.94213
1.94299
1.94496
1.94674
1.94886
1.94895
1.94567
1.93902
1.93141
1.92746
1.92673
1.92845
1.93404
1.94415
1.94998
2.64288
2.63492
2.62642
2.61664
2.60533
2.5924
2.5771
2.55875
2.53759
2.51617
2.49632
2.47363
2.44667
2.42134
2.4007
2.37899
2.35416
2.33123
2.30963
2.28775
2.26637
2.24621
2.22733
2.20895
2.19055
2.17241
2.15527
2.13923
2.12378
2.1082
2.09252
2.07759
2.06393
2.05101
2.03757
2.023
2.00808
1.99494
1.98429
1.97441
1.96364
1.95056
1.93774
1.9304
1.92575
1.9212
1.91581
1.91345
1.91287
1.91159
1.91261
1.91921
1.92469
1.92601
1.92684
1.93075
1.93612
1.94089
1.94195
1.93912
1.93247
1.93017
1.931
1.93306
1.93337
1.93022
1.92312
1.91553
1.912
1.91101
1.91254
1.91482
1.91609
1.91815
1.92204
1.92872
1.93863
1.95147
1.96219
1.97218
1.97493
1.97432
1.97433
1.97308
1.97033
1.96932
1.96933
1.96825
1.9644
1.96026
1.95733
1.95636
1.95751
1.96187
1.97246
1.97741
2.65026
2.64066
2.63065
2.62012
2.6091
2.59721
2.58333
2.56741
2.55097
2.53493
2.51664
2.4941
2.47204
2.45331
2.43396
2.40994
2.38593
2.36491
2.34418
2.32236
2.30078
2.27934
2.25865
2.23936
2.22087
2.20261
2.1842
2.16548
2.14699
2.12949
2.11333
2.09821
2.08326
2.06755
2.05085
2.03451
2.02043
2.00832
1.99657
1.98405
1.97003
1.95605
1.94557
1.9374
1.92965
1.92142
1.91466
1.91123
1.90816
1.90547
1.90508
1.90962
1.91711
1.9209
1.92178
1.92327
1.92807
1.93485
1.94042
1.94199
1.93922
1.93448
1.93428
1.93575
1.93793
1.93778
1.93484
1.92941
1.92655
1.92686
1.9294
1.93535
1.94276
1.94857
1.95856
1.96983
1.98001
1.98748
1.99306
1.99963
2.00402
2.00416
2.00377
2.00128
1.99679
1.9927
1.98999
1.98843
1.98811
1.98803
1.987
1.98708
1.98906
1.99373
2.00125
2.00254
2.65335
2.6428
2.63223
2.62189
2.61114
2.59933
2.58621
2.5723
2.55796
2.54207
2.52322
2.50411
2.48723
2.46968
2.44768
2.42457
2.40486
2.38638
2.36489
2.34201
2.32045
2.3002
2.28006
2.26028
2.24063
2.22079
2.20091
2.18146
2.16282
2.14517
2.12823
2.1113
2.09394
2.07653
2.0599
2.04467
2.03068
2.01699
2.00283
1.98836
1.97457
1.96296
1.95305
1.94302
1.93227
1.92178
1.91452
1.90958
1.90499
1.90054
1.899
1.90068
1.9057
1.90994
1.91237
1.91377
1.91635
1.92286
1.93209
1.9387
1.94042
1.93771
1.93493
1.9356
1.93748
1.94068
1.94185
1.94082
1.9403
1.94135
1.94573
1.95578
1.96822
1.98401
2.00061
2.0114
2.01442
2.01569
2.01832
2.02216
2.02648
2.02729
2.02568
2.02196
2.01703
2.01262
2.01004
2.0086
2.00892
2.01075
2.01195
2.01338
2.01633
2.02168
2.02598
2.02516
2.65671
2.64582
2.63477
2.62374
2.61214
2.59969
2.58653
2.57297
2.55843
2.54157
2.52367
2.50708
2.49109
2.4714
2.44996
2.43141
2.41479
2.39501
2.37271
2.35071
2.33077
2.31155
2.29185
2.27135
2.2502
2.22932
2.20945
2.19061
2.17259
2.15481
2.13662
2.11804
2.09975
2.08254
2.06687
2.05224
2.03753
2.02221
2.00651
1.99143
1.97899
1.96864
1.95803
1.94626
1.93408
1.92323
1.91459
1.90781
1.90166
1.89545
1.89235
1.892
1.89228
1.89351
1.89718
1.90111
1.90406
1.90907
1.91861
1.92856
1.93373
1.93477
1.93226
1.93211
1.93455
1.93893
1.9447
1.94863
1.95266
1.95918
1.96926
1.98215
1.99691
2.01327
2.02576
2.03424
2.03933
2.04108
2.04204
2.0417
2.0414
2.04043
2.03782
2.03412
2.03043
2.02852
2.02743
2.0269
2.02729
2.0284
2.02918
2.03014
2.03209
2.03792
2.04005
2.03819
2.66005
2.64917
2.63798
2.62643
2.61424
2.60145
2.5882
2.5743
2.55894
2.5422
2.52575
2.50992
2.49222
2.47199
2.45293
2.43646
2.41917
2.39762
2.37605
2.35595
2.33619
2.31686
2.297
2.27618
2.25494
2.23417
2.21462
2.19616
2.17795
2.15934
2.14036
2.12136
2.10306
2.08632
2.07102
2.05602
2.04067
2.02488
2.00933
1.99512
1.98231
1.97006
1.95821
1.94679
1.93588
1.92544
1.91544
1.90573
1.89589
1.88889
1.88546
1.88284
1.87956
1.87638
1.87774
1.88392
1.89064
1.89474
1.90176
1.91112
1.91915
1.92373
1.92465
1.92542
1.9289
1.93522
1.94344
1.95239
1.96363
1.97699
1.99146
2.00564
2.01895
2.02861
2.03648
2.0452
2.05007
2.05227
2.05307
2.05215
2.04913
2.04654
2.04422
2.04172
2.04025
2.03977
2.03951
2.03892
2.03825
2.03742
2.03649
2.03632
2.03906
2.04619
2.04749
2.04567
2.66555
2.65443
2.64284
2.63073
2.61808
2.60497
2.59131
2.57673
2.56105
2.54511
2.52944
2.51276
2.49378
2.47458
2.45736
2.44132
2.42078
2.39903
2.3796
2.36067
2.34054
2.31999
2.29947
2.279
2.25877
2.23896
2.21945
2.19991
2.18048
2.16141
2.14273
2.12446
2.10669
2.08931
2.07245
2.05646
2.04137
2.02685
2.01266
1.99808
1.98288
1.96841
1.95619
1.94633
1.93726
1.92749
1.91612
1.90288
1.88999
1.8827
1.87866
1.87476
1.86987
1.86369
1.86167
1.86497
1.87375
1.87942
1.88327
1.89025
1.89773
1.90656
1.91529
1.91962
1.92404
1.93172
1.94209
1.95539
1.97125
1.98786
2.00572
2.01855
2.02751
2.03598
2.04445
2.05039
2.05253
2.05395
2.05381
2.05251
2.05113
2.04966
2.04823
2.04711
2.04633
2.04618
2.04612
2.04507
2.0434
2.04106
2.03901
2.03963
2.0442
2.0511
2.05179
2.05004
2.67156
2.65997
2.64781
2.63517
2.62212
2.60861
2.59448
2.57961
2.56432
2.54898
2.53308
2.51558
2.4971
2.47922
2.46272
2.44391
2.42232
2.40222
2.38431
2.36529
2.3447
2.32319
2.3026
2.28284
2.26346
2.24385
2.2234
2.2026
2.1825
2.16355
2.14558
2.12804
2.11009
2.09128
2.07276
2.05603
2.04142
2.02809
2.0146
1.99966
1.9833
1.96736
1.95407
1.94385
1.93518
1.92596
1.91478
1.90072
1.88732
1.87872
1.87277
1.86821
1.86316
1.85569
1.85163
1.8521
1.85707
1.86296
1.86618
1.87265
1.88049
1.89
1.90247
1.91435
1.92484
1.93533
1.94757
1.96209
1.9784
1.99723
2.01362
2.02456
2.03437
2.04326
2.04878
2.05082
2.05132
2.05249
2.05342
2.05359
2.05341
2.05251
2.05123
2.05024
2.04964
2.0498
2.04936
2.04816
2.04608
2.04317
2.04145
2.04298
2.04812
2.05396
2.05438
2.05253
2.67646
2.66446
2.65188
2.63883
2.62535
2.61141
2.59697
2.58213
2.56707
2.55168
2.53535
2.51799
2.5005
2.48353
2.46587
2.44573
2.42537
2.40669
2.38919
2.36935
2.34817
2.32723
2.30715
2.28757
2.26763
2.24699
2.22594
2.20518
2.18532
2.16656
2.14853
2.13033
2.11139
2.0923
2.07383
2.05667
2.04122
2.02752
2.01391
1.99928
1.98379
1.96867
1.95466
1.94174
1.93157
1.92225
1.91142
1.89905
1.88771
1.87853
1.87041
1.86344
1.85734
1.8512
1.84783
1.8463
1.84634
1.85
1.85347
1.85925
1.86886
1.87966
1.89301
1.90993
1.92633
1.94268
1.95959
1.97534
1.99149
2.00715
2.01943
2.03095
2.04056
2.04715
2.0501
2.0505
2.05121
2.05266
2.05456
2.05539
2.05526
2.0547
2.05421
2.05377
2.05354
2.05298
2.0519
2.04999
2.04715
2.04447
2.04406
2.04635
2.05278
2.05723
2.0568
2.05267
2.67906
2.66692
2.65417
2.64092
2.62715
2.61292
2.59831
2.58343
2.56827
2.55256
2.53615
2.51939
2.50257
2.48532
2.46676
2.4475
2.42844
2.41067
2.39179
2.371
2.35092
2.33112
2.31091
2.29045
2.2695
2.24849
2.22792
2.20801
2.18853
2.16904
2.14926
2.12971
2.11087
2.09294
2.07586
2.0594
2.04299
2.02617
2.01027
1.99597
1.98284
1.97039
1.95806
1.94512
1.9304
1.91715
1.90588
1.8966
1.88896
1.8812
1.87258
1.86152
1.85235
1.84908
1.84677
1.84463
1.84257
1.84379
1.84695
1.85205
1.86096
1.87382
1.89043
1.91017
1.93136
1.95263
1.97226
1.98967
2.00492
2.01599
2.02559
2.03715
2.04524
2.04775
2.0485
2.04907
2.05058
2.05261
2.05559
2.05643
2.0562
2.05614
2.05619
2.05688
2.05662
2.0557
2.05371
2.05037
2.04746
2.04642
2.04734
2.05105
2.05801
2.06121
2.05996
2.05322
2.6805
2.66833
2.6555
2.64211
2.62815
2.61376
2.59906
2.58407
2.56862
2.55271
2.53654
2.52019
2.50322
2.48532
2.46696
2.44899
2.43163
2.41289
2.3923
2.37182
2.35268
2.33336
2.31282
2.29158
2.26994
2.24911
2.22942
2.21029
2.19082
2.17009
2.14845
2.12787
2.10984
2.09383
2.07846
2.06193
2.04288
2.02295
2.0059
1.99275
1.98198
1.97182
1.95999
1.94419
1.92591
1.91077
1.90159
1.89498
1.88873
1.88173
1.87138
1.85833
1.84941
1.84525
1.84268
1.84073
1.83908
1.83976
1.84237
1.84769
1.85704
1.87125
1.88957
1.91133
1.9359
1.96027
1.98193
2.00104
2.015
2.02456
2.03291
2.0408
2.04772
2.05058
2.05092
2.05076
2.05207
2.05382
2.05693
2.05788
2.05765
2.05767
2.05787
2.05869
2.05822
2.05712
2.05426
2.05033
2.04876
2.0487
2.05031
2.05389
2.0596
2.06168
2.05924
2.05156
)
;

boundaryField
{
    inlet
    {
        type            fixedValue;
        value           uniform 1;
    }
    outlet
    {
        type            inletOutlet;
        inletValue      uniform 1;
        value           nonuniform List<scalar> 
32
(
2.15054
2.14054
2.11663
2.05836
1.98671
1.92135
1.87203
1.8471
1.84172
1.85111
1.87021
1.886
1.89181
1.889
1.8824
1.87495
1.87242
1.87405
1.87938
1.89538
1.92015
1.95023
1.97786
2.00274
2.025
2.038
2.0459
2.05055
2.05309
2.05284
2.05286
2.05109
)
;
    }
    bottom
    {
        type            symmetryPlane;
    }
    top
    {
        type            symmetryPlane;
    }
    obstacle
    {
        type            zeroGradient;
    }
    defaultFaces
    {
        type            empty;
    }
}


// ************************************************************************* //
