/*--------------------------------*- C++ -*----------------------------------*\
  =========                 |
  \\      /  F ield         | OpenFOAM: The Open Source CFD Toolbox
   \\    /   O peration     | Website:  https://openfoam.org
    \\  /    A nd           | Version:  7
     \\/     M anipulation  |
\*---------------------------------------------------------------------------*/
FoamFile
{
    version     2.0;
    format      ascii;
    class       volVectorField;
    location    "15.5";
    object      U;
}
// * * * * * * * * * * * * * * * * * * * * * * * * * * * * * * * * * * * * * //

dimensions      [0 1 -1 0 0 0 0];

internalField   nonuniform List<vector> 
4032
(
(3 1.37328e-16 0)
(3 2.69797e-16 0)
(3 1.66851e-16 0)
(3 9.98081e-17 0)
(3 1.57075e-16 0)
(3 3.04713e-17 0)
(3 -2.20682e-16 0)
(3 -5.66887e-17 0)
(3 3.69673e-16 0)
(3 5.75564e-16 0)
(3 6.68671e-16 0)
(2.97589 -0.00599504 0)
(1.06549 0.0188021 0)
(0.717262 0.0168833 0)
(0.667185 0.0211827 0)
(0.610627 0.0234007 0)
(0.552694 0.0253943 0)
(0.492082 0.0274166 0)
(0.428519 0.0295939 0)
(0.361298 0.032062 0)
(0.289882 0.0346972 0)
(0.213418 0.0377993 0)
(0.131821 0.0397913 0)
(0.0482784 0.0438391 0)
(3 8.65499e-17 0)
(3 5.26572e-16 0)
(3 6.39695e-16 0)
(3 6.13839e-16 0)
(3 4.52958e-16 0)
(3 2.12847e-17 0)
(3 -3.97604e-16 0)
(3 3.30515e-18 0)
(3 1.25461e-16 0)
(3 -3.6489e-17 0)
(3 1.22709e-16 0)
(2.99838 0.00225137 0)
(1.08754 0.072252 0)
(0.716984 0.0613571 0)
(0.662472 0.0685858 0)
(0.603962 0.0744261 0)
(0.544229 0.0796033 0)
(0.482378 0.0853629 0)
(0.417903 0.091815 0)
(0.350207 0.0993149 0)
(0.278905 0.107298 0)
(0.203609 0.116735 0)
(0.124061 0.12269 0)
(0.0447234 0.133069 0)
(3 -5.14952e-17 0)
(3 8.3084e-17 0)
(3 -1.84171e-16 0)
(3 -4.86759e-16 0)
(3 -6.7987e-16 0)
(3 -6.9669e-16 0)
(3 -2.67409e-16 0)
(3 -2.28361e-16 0)
(3 -6.0584e-16 0)
(3 -1.03613e-15 0)
(3 -1.08574e-15 0)
(3.00008 8.37763e-06 0)
(1.14904 0.124028 0)
(0.726 0.105473 0)
(0.668678 0.116394 0)
(0.610279 0.12587 0)
(0.550343 0.134319 0)
(0.488593 0.143836 0)
(0.424119 0.154475 0)
(0.356219 0.166785 0)
(0.2841 0.179598 0)
(0.207652 0.194668 0)
(0.125785 0.203589 0)
(0.045307 0.217906 0)
(3 1.52182e-17 0)
(3 -9.419e-17 0)
(3 -3.28737e-16 0)
(3 -7.16577e-16 0)
(3 -9.59943e-16 0)
(3 -8.01854e-16 0)
(3 -3.57688e-16 0)
(3 -8.61954e-16 0)
(3 -6.31157e-16 0)
(3 -6.11365e-16 0)
(3 -9.62712e-16 0)
(3 -4.98677e-08 0)
(1.25308 0.176295 0)
(0.738159 0.152432 0)
(0.67447 0.164999 0)
(0.616805 0.177448 0)
(0.557567 0.188758 0)
(0.497124 0.202129 0)
(0.433485 0.217587 0)
(0.365525 0.236012 0)
(0.292161 0.255052 0)
(0.214455 0.277058 0)
(0.130057 0.290254 0)
(0.0457786 0.307239 0)
(3 9.96336e-17 0)
(3 -4.49764e-17 0)
(3 -2.28185e-16 0)
(3 -2.22405e-16 0)
(3 -1.07432e-15 0)
(3 -1.08732e-15 0)
(3 -1.09806e-15 0)
(3 -1.11752e-15 0)
(3 -8.05127e-16 0)
(3 -4.31397e-16 0)
(3 -4.97046e-16 0)
(3 -1.23723e-08 0)
(1.41181 0.228096 0)
(0.756042 0.204502 0)
(0.681656 0.214389 0)
(0.626493 0.228209 0)
(0.570043 0.241648 0)
(0.513307 0.258794 0)
(0.453486 0.279542 0)
(0.389622 0.304916 0)
(0.319157 0.330533 0)
(0.242672 0.36045 0)
(0.152173 0.38229 0)
(0.0567667 0.406732 0)
(3 1.76532e-17 0)
(3 -9.67016e-17 0)
(3 -3.61172e-16 0)
(3 -7.56567e-16 0)
(3 -6.65173e-16 0)
(3 -6.3e-16 0)
(3 -6.22515e-16 0)
(3 -8.52788e-16 0)
(3 -1.33498e-15 0)
(3 -1.33154e-15 0)
(3 -9.44495e-16 0)
(3 -1.45352e-09 0)
(1.64326 0.277782 0)
(0.782991 0.265327 0)
(0.686673 0.263262 0)
(0.632154 0.27669 0)
(0.578523 0.291325 0)
(0.5273 0.311839 0)
(0.473937 0.337846 0)
(0.416064 0.37175 0)
(0.346494 0.408883 0)
(0.265909 0.454662 0)
(0.167812 0.495476 0)
(0.0566131 0.529937 0)
(3 -2.76879e-16 0)
(3 -2.76809e-16 0)
(3 -2.6348e-16 0)
(3 -7.4359e-16 0)
(3 -4.22355e-16 0)
(3 -5.00992e-16 0)
(3 -5.17891e-16 0)
(3 -6.33697e-16 0)
(3 -7.53227e-16 0)
(3 -9.26981e-16 0)
(3 -4.43671e-16 0)
(3 -6.56637e-11 0)
(1.97162 0.327722 0)
(0.824362 0.342569 0)
(0.695147 0.32526 0)
(0.64128 0.330464 0)
(0.589979 0.342379 0)
(0.543219 0.36345 0)
(0.495776 0.393288 0)
(0.447885 0.436537 0)
(0.389219 0.488472 0)
(0.324252 0.54927 0)
(0.235498 0.609246 0)
(0.102698 0.675033 0)
(3 -4.45771e-17 0)
(3 -7.63924e-17 0)
(3 2.40308e-16 0)
(3 5.10071e-16 0)
(3 -7.73385e-17 0)
(3 -7.36822e-16 0)
(3 -1.14335e-15 0)
(3 -6.21023e-16 0)
(3 -4.92979e-16 0)
(3 -4.61443e-16 0)
(3 -2.30972e-16 0)
(3 -7.96928e-13 0)
(2.45581 0.325847 0)
(0.922908 0.43218 0)
(0.758366 0.376841 0)
(0.703107 0.382118 0)
(0.643846 0.392472 0)
(0.591595 0.413078 0)
(0.54297 0.445347 0)
(0.498812 0.493443 0)
(0.453128 0.555383 0)
(0.395518 0.643471 0)
(0.282777 0.77115 0)
(0.155825 0.94669 0)
(3 1.86142e-16 0)
(3 5.0529e-16 0)
(3 1.01282e-15 0)
(3 1.24687e-15 0)
(3 7.51363e-16 0)
(3 3.22544e-16 0)
(3 -1.08715e-16 0)
(3 -2.85145e-16 0)
(3 -6.66629e-16 0)
(3 -8.12268e-16 0)
(3 -2.53839e-18 0)
(3 -2.68325e-14 0)
(2.99615 0.116883 0)
(1.12212 0.458581 0)
(0.854066 0.409385 0)
(0.800383 0.428628 0)
(0.731681 0.445137 0)
(0.669898 0.464428 0)
(0.616495 0.495457 0)
(0.570697 0.544287 0)
(0.533279 0.620024 0)
(0.500805 0.746907 0)
(0.478672 0.932489 0)
(0.59285 1.24732 0)
(3 2.62875e-16 0)
(3 5.44182e-16 0)
(3 6.78581e-16 0)
(3 9.37302e-16 0)
(3 5.37641e-16 0)
(3 4.0385e-16 0)
(3 1.81699e-16 0)
(3 9.34563e-17 0)
(3 3.74056e-16 0)
(3 5.72321e-16 0)
(3 3.61715e-16 0)
(3 -2.83789e-15 0)
(3.02896 0.0045315 0)
(1.30792 0.432885 0)
(0.878316 0.471943 0)
(0.836872 0.50153 0)
(0.781324 0.515926 0)
(0.729779 0.531992 0)
(0.685667 0.559087 0)
(0.645851 0.603091 0)
(0.628552 0.680647 0)
(0.629539 0.811334 0)
(0.700504 0.967193 0)
(0.973456 1.1582 0)
(3 -1.04324e-16 0)
(3 -2.21518e-16 0)
(3 4.25337e-17 0)
(3 5.6913e-16 0)
(3 3.03834e-16 0)
(3 3.38742e-16 0)
(3 1.45309e-16 0)
(3 2.72037e-16 0)
(3 7.75696e-16 0)
(3 8.66697e-16 0)
(3 9.11648e-16 0)
(3 8.66157e-16 0)
(3.0006 -1.09512e-05 0)
(1.64129 0.46632 0)
(0.871387 0.510243 0)
(0.835378 0.54046 0)
(0.809135 0.565712 0)
(0.782375 0.583669 0)
(0.756613 0.610263 0)
(0.731129 0.647303 0)
(0.731917 0.715799 0)
(0.758136 0.827297 0)
(0.8824 0.95345 0)
(1.16596 1.07143 0)
(3 4.57256e-17 0)
(3 -6.48623e-16 0)
(3 -2.34543e-16 0)
(3 -2.65945e-16 0)
(3 2.38364e-16 0)
(3 3.00246e-17 0)
(3 -1.7475e-16 0)
(3 -2.57398e-16 0)
(3 -3.52517e-16 0)
(3 -3.82199e-16 0)
(3 3.97346e-16 0)
(3 6.17133e-16 0)
(3.00002 -5.52053e-06 0)
(2.31937 0.459496 0)
(0.972217 0.591127 0)
(0.865581 0.551626 0)
(0.861111 0.580787 0)
(0.845215 0.613596 0)
(0.830979 0.649821 0)
(0.820387 0.686942 0)
(0.831456 0.745985 0)
(0.878474 0.829728 0)
(1.01254 0.920622 0)
(1.2401 0.986738 0)
(3 2.76145e-16 0)
(3 1.42166e-16 0)
(3 -7.40669e-17 0)
(3 -2.60339e-16 0)
(3 7.45116e-17 0)
(3 1.27823e-18 0)
(3 1.98048e-17 0)
(3 -5.53701e-16 0)
(3 -4.47537e-16 0)
(3 -2.82791e-16 0)
(3 -4.13531e-16 0)
(3 -3.15551e-16 0)
(3 -1.3746e-06 0)
(3.07778 0.113816 0)
(1.24145 0.600754 0)
(0.948424 0.560185 0)
(0.938512 0.612598 0)
(0.918486 0.644743 0)
(0.907089 0.680809 0)
(0.907823 0.71738 0)
(0.923337 0.766584 0)
(0.982377 0.831402 0)
(1.11359 0.901601 0)
(1.30589 0.941616 0)
(3 -1.28506e-16 0)
(3 2.66508e-16 0)
(3 -3.87323e-17 0)
(3 2.64387e-16 0)
(3 6.36778e-16 0)
(3 1.05247e-15 0)
(3 1.50787e-15 0)
(3 1.1842e-15 0)
(3 8.55045e-16 0)
(3 6.55209e-16 0)
(3 6.95685e-17 0)
(3 -3.36547e-16 0)
(3 -1.30185e-07 0)
(3.02559 0.001045 0)
(1.51167 0.584548 0)
(0.972893 0.648 0)
(0.951201 0.661016 0)
(0.938857 0.682743 0)
(0.950749 0.714139 0)
(0.970887 0.750547 0)
(1.00314 0.786041 0)
(1.06734 0.827825 0)
(1.18052 0.86988 0)
(1.33779 0.892321 0)
(3 5.43799e-17 0)
(3 -1.52824e-16 0)
(3 1.55919e-16 0)
(3 3.23551e-16 0)
(3 7.78694e-16 0)
(3 5.18729e-16 0)
(3 6.62759e-16 0)
(3 1.6352e-15 0)
(3 2.04996e-15 0)
(3 1.54046e-15 0)
(3 6.57916e-16 0)
(3 -5.61688e-16 0)
(3 -4.09046e-09 0)
(3.00035 -8.41076e-06 0)
(2.24332 0.547384 0)
(1.06815 0.722155 0)
(0.989502 0.682005 0)
(0.978117 0.695024 0)
(0.994646 0.720152 0)
(1.02155 0.75583 0)
(1.06656 0.793656 0)
(1.13661 0.828051 0)
(1.23201 0.853928 0)
(1.35879 0.862744 0)
(3 9.85372e-17 0)
(3 -1.06818e-16 0)
(3 7.42589e-17 0)
(3 -1.0209e-16 0)
(3 -1.79831e-16 0)
(3 -4.77661e-17 0)
(3 6.26125e-16 0)
(3 1.04291e-15 0)
(3 6.88327e-16 0)
(3 5.99523e-16 0)
(3 -1.92711e-16 0)
(3 2.05556e-16 0)
(3 -1.07271e-11 0)
(3.00003 -1.42567e-05 0)
(3.06231 0.119897 0)
(1.39144 0.71028 0)
(1.08173 0.703553 0)
(1.06168 0.707115 0)
(1.05905 0.732244 0)
(1.07578 0.760847 0)
(1.11466 0.7856 0)
(1.17823 0.808897 0)
(1.25748 0.820271 0)
(1.35289 0.809885 0)
(3 -1.36862e-17 0)
(3 4.13684e-16 0)
(3 3.59586e-16 0)
(3 -2.04437e-16 0)
(3 -1.6188e-16 0)
(3 3.76493e-16 0)
(3 5.13188e-16 0)
(3 3.57838e-16 0)
(3 -1.15667e-15 0)
(3 -1.32003e-15 0)
(3 -6.84212e-16 0)
(3 2.95794e-16 0)
(3 -1.17721e-14 0)
(3 -3.08995e-06 0)
(3.02064 0.00132906 0)
(1.81934 0.669212 0)
(1.1172 0.775458 0)
(1.0999 0.771833 0)
(1.10869 0.772922 0)
(1.12263 0.782783 0)
(1.15246 0.791653 0)
(1.20478 0.79497 0)
(1.26311 0.776462 0)
(1.32556 0.735904 0)
(3 2.77553e-17 0)
(3 -3.95068e-16 0)
(3 -4.71036e-16 0)
(3 -5.34907e-17 0)
(3 1.75554e-16 0)
(3 7.82325e-17 0)
(3 -6.37204e-16 0)
(3 -1.30829e-15 0)
(3 -1.57455e-15 0)
(3 -8.36622e-16 0)
(3 -1.46918e-16 0)
(3 -9.64498e-17 0)
(3 -5.85092e-16 0)
(3 -2.58666e-07 0)
(3.00021 9.70888e-06 0)
(2.82488 0.325169 0)
(1.31133 0.785161 0)
(1.15856 0.776795 0)
(1.17157 0.77487 0)
(1.1732 0.781101 0)
(1.18222 0.770312 0)
(1.21072 0.746747 0)
(1.24815 0.70952 0)
(1.2885 0.660741 0)
(3 -1.34307e-16 0)
(3 -5.44965e-16 0)
(3 -9.7971e-16 0)
(3 -5.11988e-16 0)
(3 -1.75174e-17 0)
(3 8.83226e-17 0)
(3 -3.23576e-16 0)
(3 -8.39703e-16 0)
(3 -5.46146e-16 0)
(3 -4.60509e-17 0)
(3 1.18129e-16 0)
(3 6.10166e-17 0)
(3 2.79511e-17 0)
(3 -1.44561e-09 0)
(3.00002 -6.97204e-06 0)
(3.05288 0.0139286 0)
(1.69467 0.738705 0)
(1.18951 0.823526 0)
(1.19065 0.819599 0)
(1.18392 0.796955 0)
(1.18198 0.754947 0)
(1.20184 0.703784 0)
(1.2266 0.650889 0)
(1.26622 0.605902 0)
(3 1.42536e-16 0)
(3 8.48161e-16 0)
(3 8.71539e-16 0)
(3 -4.04423e-16 0)
(3 -7.13238e-16 0)
(3 -6.6821e-16 0)
(3 -4.61928e-16 0)
(3 -4.42941e-16 0)
(3 -1.52155e-17 0)
(3 1.89819e-17 0)
(3 -4.9444e-16 0)
(3 -6.00627e-16 0)
(3 -4.56778e-16 0)
(3 -2.23148e-12 0)
(3 -1.52756e-06 0)
(3.00138 0.000260234 0)
(2.70422 0.455684 0)
(1.32689 0.867606 0)
(1.20542 0.7972 0)
(1.1785 0.746321 0)
(1.16479 0.689997 0)
(1.19053 0.649032 0)
(1.22229 0.611617 0)
(1.26684 0.580708 0)
(3 7.60883e-17 0)
(3 3.15754e-16 0)
(3 4.7376e-16 0)
(3 -1.01713e-16 0)
(3 -8.10756e-16 0)
(3 -9.36569e-16 0)
(3 -8.21959e-16 0)
(3 -4.91511e-16 0)
(3 -2.56278e-16 0)
(3 -2.56909e-17 0)
(3 -9.41366e-17 0)
(3 -2.98086e-16 0)
(3 -3.36889e-16 0)
(3 -2.04467e-16 0)
(3 -1.29305e-07 0)
(3 2.38184e-07 0)
(3.06642 0.0298218 0)
(1.7484 0.792824 0)
(1.18211 0.793134 0)
(1.14576 0.713746 0)
(1.15348 0.654279 0)
(1.19664 0.611283 0)
(1.23324 0.580545 0)
(1.27767 0.557802 0)
(3 -1.1997e-16 0)
(3 -6.43409e-16 0)
(3 -1.0073e-15 0)
(3 -8.29361e-16 0)
(3 -8.40178e-16 0)
(3 -1.24141e-15 0)
(3 -9.55353e-16 0)
(3 -6.86011e-16 0)
(3 -6.7547e-16 0)
(3 -6.50589e-16 0)
(3 1.01391e-16 0)
(3 7.87995e-17 0)
(3 5.84783e-16 0)
(3 4.67261e-16 0)
(3 -8.18101e-10 0)
(3 -7.07438e-08 0)
(3.00273 0.000702385 0)
(2.59788 0.513382 0)
(1.21079 0.754265 0)
(1.11455 0.648199 0)
(1.16402 0.622201 0)
(1.21536 0.598316 0)
(1.25518 0.572694 0)
(1.29469 0.546013 0)
(3 9.90263e-18 0)
(3 -1.0516e-17 0)
(3 -9.25236e-17 0)
(3 -1.00945e-16 0)
(3 -4.07686e-16 0)
(3 -1.40206e-15 0)
(3 -1.35021e-15 0)
(3 -4.57635e-16 0)
(3 -3.35952e-16 0)
(3 -3.59964e-16 0)
(3 -6.3528e-16 0)
(3 -2.56254e-16 0)
(3 -4.9125e-17 0)
(3 -2.35159e-16 0)
(3 -1.70909e-12 0)
(3 -1.52696e-08 0)
(3 2.26008e-06 0)
(3.05276 0.0548438 0)
(1.27042 0.550675 0)
(1.08947 0.570571 0)
(1.16871 0.577155 0)
(1.21759 0.572063 0)
(1.25636 0.554108 0)
(1.29519 0.530828 0)
(3 7.68624e-17 0)
(3 4.15367e-16 0)
(3 1.15747e-15 0)
(3 1.02829e-15 0)
(3 8.47742e-16 0)
(3 5.10114e-16 0)
(3 5.38599e-16 0)
(3 7.7409e-17 0)
(3 7.53374e-17 0)
(3 -5.88021e-17 0)
(3 -4.82212e-16 0)
(3 -7.74419e-16 0)
(3 -1.26553e-15 0)
(3 -1.12726e-15 0)
(3 -1.02747e-15 0)
(3 -1.52453e-09 0)
(3 -1.00545e-09 0)
(3.00618 0.000826201 0)
(1.26156 0.402494 0)
(0.979676 0.533788 0)
(1.10007 0.54309 0)
(1.1766 0.536076 0)
(1.23408 0.522122 0)
(1.27848 0.500929 0)
(3 -2.4205e-16 0)
(3 -7.07639e-16 0)
(3 -4.98812e-16 0)
(3 -2.51635e-16 0)
(3 2.63019e-17 0)
(3 5.97702e-16 0)
(3 7.72868e-16 0)
(3 2.8881e-16 0)
(3 2.00462e-16 0)
(3 -1.67264e-16 0)
(3 -3.22043e-16 0)
(3 -4.69385e-16 0)
(3 -2.7268e-16 0)
(3 -7.87326e-17 0)
(3 -1.36661e-16 0)
(3 -2.94296e-11 0)
(3 -3.59543e-10 0)
(3.00003 -2.48389e-07 0)
(1.46235 0.31162 0)
(0.886823 0.432042 0)
(0.975575 0.443175 0)
(1.07128 0.463679 0)
(1.16069 0.471958 0)
(1.22782 0.457877 0)
(3 -1.26612e-16 0)
(3 -6.46886e-16 0)
(3 -6.15911e-16 0)
(3 -6.38923e-16 0)
(3 -2.51654e-16 0)
(3 1.35268e-16 0)
(3 1.14072e-16 0)
(3 6.40888e-16 0)
(3 7.05616e-16 0)
(3 7.18391e-16 0)
(3 3.34248e-16 0)
(3 7.71552e-16 0)
(3 8.3685e-16 0)
(3 6.47442e-16 0)
(3 7.55093e-17 0)
(3 -1.7107e-13 0)
(3 -7.3938e-12 0)
(3 -7.18896e-07 0)
(1.72018 0.320458 0)
(0.843845 0.384315 0)
(0.858247 0.38607 0)
(0.938647 0.400074 0)
(1.02845 0.407759 0)
(1.11528 0.407052 0)
(3 -5.42843e-18 0)
(3 -7.52313e-17 0)
(3 -1.78018e-16 0)
(3 3.89849e-16 0)
(3 1.29558e-15 0)
(3 1.11422e-15 0)
(3 7.32213e-16 0)
(3 5.77337e-16 0)
(3 2.1066e-16 0)
(3 4.15641e-16 0)
(3 1.27418e-17 0)
(3 -7.0945e-16 0)
(3 -1.23427e-15 0)
(3 -1.38479e-15 0)
(3 -1.00904e-15 0)
(3 -2.59019e-17 0)
(3 -7.66911e-14 0)
(3 -1.47342e-07 0)
(2.04997 0.344216 0)
(0.874332 0.36175 0)
(0.831492 0.333393 0)
(0.881493 0.331168 0)
(0.934138 0.338895 0)
(1.00413 0.339813 0)
(3 2.05904e-17 0)
(3 5.99995e-16 0)
(3 6.04676e-16 0)
(3 4.73981e-16 0)
(3 2.29935e-16 0)
(3 6.29128e-16 0)
(3 4.40343e-16 0)
(3 1.42628e-16 0)
(3 -4.6476e-16 0)
(3 -7.91601e-16 0)
(3 -1.09333e-15 0)
(3 -1.93686e-15 0)
(3 -2.25492e-15 0)
(3 -2.60396e-15 0)
(3 -1.2845e-15 0)
(3 -4.20428e-16 0)
(3 -2.60606e-16 0)
(3 -1.25832e-08 0)
(2.48945 0.30756 0)
(0.94276 0.355715 0)
(0.847928 0.304001 0)
(0.894071 0.295866 0)
(0.928812 0.29227 0)
(0.969241 0.286438 0)
(3 1.43689e-16 0)
(3 4.75584e-16 0)
(3 9.38755e-16 0)
(3 3.42654e-16 0)
(3 -7.18121e-16 0)
(3 -6.57636e-16 0)
(3 -5.32123e-16 0)
(3 -6.32381e-16 0)
(3 -8.79481e-16 0)
(3 -9.57766e-16 0)
(3 -1.16495e-15 0)
(3 -1.05228e-15 0)
(3 -8.92524e-16 0)
(3 -3.26402e-16 0)
(3 -2.13096e-16 0)
(3 2.24054e-16 0)
(3 2.45466e-16 0)
(3 -3.82282e-10 0)
(2.88806 0.125668 0)
(1.05374 0.316376 0)
(0.864571 0.277837 0)
(0.905465 0.272993 0)
(0.933723 0.26656 0)
(0.963113 0.255953 0)
(3 2.44533e-17 0)
(3 1.32911e-16 0)
(3 2.36288e-16 0)
(3 2.00346e-16 0)
(3 -9.46674e-17 0)
(3 -1.54861e-15 0)
(3 -1.48324e-15 0)
(3 -1.2282e-15 0)
(3 -1.24898e-15 0)
(3 -7.69982e-16 0)
(3 -6.39257e-16 0)
(3 9.93413e-16 0)
(3 1.3727e-15 0)
(3 1.43448e-15 0)
(3 9.21182e-16 0)
(3 1.06605e-15 0)
(3 8.65695e-16 0)
(3 -5.60431e-12 0)
(2.95732 0.0231777 0)
(1.09265 0.256182 0)
(0.842641 0.248087 0)
(0.886251 0.247128 0)
(0.916843 0.242112 0)
(0.944142 0.232997 0)
(3 6.05248e-17 0)
(3 1.74423e-16 0)
(3 1.30324e-16 0)
(3 1.09588e-17 0)
(3 -1.61945e-16 0)
(3 -9.34789e-16 0)
(3 -1.41357e-15 0)
(3 -1.25334e-15 0)
(3 -7.13002e-16 0)
(3 1.51761e-16 0)
(3 5.67726e-16 0)
(3 8.89381e-16 0)
(3 1.54922e-15 0)
(3 1.4833e-15 0)
(3 7.8735e-16 0)
(3 1.3561e-16 0)
(3 6.13144e-17 0)
(3 -4.1236e-14 0)
(2.99368 0.00516492 0)
(1.12608 0.218435 0)
(0.805628 0.224926 0)
(0.844889 0.22297 0)
(0.879925 0.222537 0)
(0.910647 0.216008 0)
(3 -1.1213e-16 0)
(3 -1.23136e-15 0)
(3 -1.06952e-15 0)
(3 -8.32228e-16 0)
(3 -5.64203e-16 0)
(3 1.16731e-16 0)
(3 2.40796e-17 0)
(3 -4.79086e-16 0)
(3 -3.997e-16 0)
(3 -1.63903e-16 0)
(3 6.15931e-16 0)
(3 5.35417e-16 0)
(3 7.44046e-16 0)
(3 9.84237e-16 0)
(3 1.32868e-15 0)
(3 5.98959e-16 0)
(3 2.64291e-16 0)
(3 -4.56504e-16 0)
(3.00003 6.0263e-05 0)
(1.19906 0.208423 0)
(0.793521 0.194071 0)
(0.814429 0.19267 0)
(0.849555 0.195333 0)
(0.881479 0.192577 0)
(3 -1.76589e-16 0)
(3 -5.27032e-16 0)
(3 -6.67055e-16 0)
(3 -5.20443e-16 0)
(3 8.29036e-17 0)
(3 8.04508e-16 0)
(3 1.10949e-15 0)
(3 8.71203e-16 0)
(3 5.47017e-16 0)
(3 4.46883e-16 0)
(3 7.20923e-16 0)
(3 6.18706e-16 0)
(3 1.11469e-16 0)
(3 1.58058e-16 0)
(3 8.21667e-16 0)
(3 5.60666e-16 0)
(3 5.02677e-16 0)
(3 5.46944e-18 0)
(3 1.6461e-08 0)
(1.3117 0.199231 0)
(0.799163 0.170854 0)
(0.803873 0.167013 0)
(0.837717 0.167786 0)
(0.867053 0.166229 0)
(3 1.61826e-16 0)
(3 1.2177e-15 0)
(3 1.16102e-15 0)
(3 1.2656e-15 0)
(3 1.53267e-15 0)
(3 1.42746e-15 0)
(3 1.39385e-15 0)
(3 1.12758e-15 0)
(3 9.79563e-16 0)
(3 7.77642e-16 0)
(3 5.02896e-16 0)
(3 4.14887e-17 0)
(3 1.685e-17 0)
(3 -2.54931e-16 0)
(3 -1.99213e-16 0)
(3 8.64905e-17 0)
(3 6.11718e-17 0)
(3 -5.93384e-16 0)
(3 -6.10878e-13 0)
(1.44778 0.178321 0)
(0.808461 0.150588 0)
(0.806551 0.14538 0)
(0.842101 0.143995 0)
(0.870317 0.141787 0)
(3 1.54794e-16 0)
(3 5.47583e-16 0)
(3 7.4371e-16 0)
(3 1.88667e-16 0)
(3 -2.39672e-17 0)
(3 3.09017e-16 0)
(3 5.76151e-16 0)
(3 7.16969e-16 0)
(3 4.66913e-16 0)
(3 3.34161e-16 0)
(3 -6.13237e-17 0)
(3 -2.39065e-16 0)
(3 -2.11969e-16 0)
(3 1.57034e-17 0)
(3 -1.27943e-16 0)
(3 -1.30017e-16 0)
(3 3.67543e-17 0)
(3 1.75775e-17 0)
(3 -2.52154e-13 0)
(1.57 0.143791 0)
(0.812325 0.126187 0)
(0.804902 0.121782 0)
(0.841491 0.120291 0)
(0.868961 0.118382 0)
(3 5.44375e-18 0)
(3 1.61216e-16 0)
(3 -1.6884e-16 0)
(3 -6.33545e-16 0)
(3 -7.2856e-16 0)
(3 -5.58326e-16 0)
(3 2.01875e-17 0)
(3 7.18242e-16 0)
(3 1.10634e-15 0)
(3 8.71739e-16 0)
(3 -8.80116e-17 0)
(3 -1.67622e-16 0)
(3 -3.86215e-16 0)
(3 -4.38081e-16 0)
(3 -4.4646e-16 0)
(3 -8.03931e-16 0)
(3 -9.87229e-16 0)
(3 -3.92057e-16 0)
(3 -3.35783e-14 0)
(1.66441 0.110463 0)
(0.809924 0.10248 0)
(0.796494 0.0990825 0)
(0.833597 0.098087 0)
(0.86097 0.0969039 0)
(3 -6.71026e-17 0)
(3 -2.16101e-17 0)
(3 -1.12076e-16 0)
(3 -4.79896e-16 0)
(3 -5.31515e-16 0)
(3 -3.99235e-16 0)
(3 -4.92437e-16 0)
(3 1.72231e-16 0)
(3 2.50906e-16 0)
(3 -2.20091e-16 0)
(3 -6.7159e-16 0)
(3 -4.68414e-16 0)
(3 -3.06037e-16 0)
(3 -1.03669e-15 0)
(3 -1.09788e-15 0)
(3 -1.03108e-15 0)
(3 -1.40545e-15 0)
(3 -6.7226e-16 0)
(3 -6.64133e-15 0)
(1.7408 0.0840821 0)
(0.808696 0.0797249 0)
(0.789511 0.0767587 0)
(0.826618 0.0761916 0)
(0.853965 0.0755689 0)
(3 3.20447e-17 0)
(3 -2.48071e-16 0)
(3 1.09855e-16 0)
(3 2.051e-16 0)
(3 -2.62012e-16 0)
(3 -7.09867e-16 0)
(3 -1.29902e-15 0)
(3 -1.77816e-15 0)
(3 -1.8052e-15 0)
(3 -1.65471e-15 0)
(3 -9.84975e-16 0)
(3 -2.10604e-16 0)
(3 1.31883e-16 0)
(3 -2.96567e-16 0)
(3 -5.65235e-16 0)
(3 -6.37921e-16 0)
(3 -7.66798e-16 0)
(3 -8.30733e-16 0)
(3 -4.05874e-15 0)
(1.80648 0.0587376 0)
(0.813252 0.0564733 0)
(0.789932 0.0545243 0)
(0.827436 0.0542554 0)
(0.855213 0.0540639 0)
(3 -9.00805e-17 0)
(3 -5.84109e-16 0)
(3 -1.07841e-15 0)
(3 -4.49488e-16 0)
(3 -9.58256e-17 0)
(3 -4.00068e-16 0)
(3 -8.88101e-16 0)
(3 -1.25576e-15 0)
(3 -1.16195e-15 0)
(3 -8.83478e-16 0)
(3 2.29561e-16 0)
(3 9.80614e-16 0)
(3 1.285e-15 0)
(3 5.0287e-16 0)
(3 3.2486e-16 0)
(3 -7.93725e-16 0)
(3 -1.18646e-15 0)
(3 -1.27253e-15 0)
(3 -2.4015e-15 0)
(1.84591 0.0294333 0)
(0.814918 0.0316116 0)
(0.787855 0.0319425 0)
(0.824599 0.0319663 0)
(0.851891 0.0321346 0)
(3 1.85579e-16 0)
(3 -7.9807e-16 0)
(3 -1.39144e-15 0)
(3 -1.12244e-15 0)
(3 -5.28025e-16 0)
(3 -4.92378e-16 0)
(3 -4.94086e-16 0)
(3 -2.92778e-16 0)
(3 -1.41403e-16 0)
(3 9.13805e-17 0)
(3 4.19427e-16 0)
(3 4.80553e-16 0)
(3 7.18689e-16 0)
(3 6.64276e-16 0)
(3 6.74291e-16 0)
(3 -5.77864e-16 0)
(3 -7.52383e-16 0)
(3 -6.31241e-16 0)
(3 -6.60633e-16 0)
(1.85245 0.00637119 0)
(0.808666 0.00864206 0)
(0.778976 0.0106118 0)
(0.814347 0.0115511 0)
(0.841447 0.0122648 0)
(1.13846 1.35131 0)
(0.125971 0.605926 0)
(-0.0809276 0.100253 0)
(-0.0385827 0.0144488 0)
(-0.0347206 0.0217083 0)
(-0.058054 0.0298521 0)
(-0.0974706 0.0260341 0)
(-0.120946 0.0141269 0)
(-0.14011 0.00121761 0)
(-0.149276 -0.0102753 0)
(-0.152136 -0.0143948 0)
(-0.157446 -0.0153279 0)
(-0.159572 -0.0144285 0)
(-0.155817 -0.0121066 0)
(-0.147537 -0.0104852 0)
(-0.136574 -0.0101427 0)
(-0.125338 -0.0108906 0)
(-0.115272 -0.0121052 0)
(-0.106733 -0.0130437 0)
(-0.0987518 -0.0134242 0)
(-0.0906945 -0.0134401 0)
(-0.0810793 -0.013378 0)
(-0.0687077 -0.0136594 0)
(-0.0525599 -0.0149163 0)
(-0.0333184 -0.0172801 0)
(-0.013492 -0.0203709 0)
(0.00620838 -0.0237351 0)
(0.0254948 -0.0270105 0)
(0.0458504 -0.0298458 0)
(0.0690264 -0.0320608 0)
(0.0961513 -0.0338874 0)
(0.127654 -0.035893 0)
(0.163213 -0.0381314 0)
(0.202231 -0.0408085 0)
(0.24386 -0.043976 0)
(0.286892 -0.046773 0)
(0.330293 -0.0482432 0)
(0.373944 -0.0486571 0)
(0.418442 -0.0483456 0)
(0.464292 -0.0477362 0)
(0.511641 -0.0471212 0)
(0.560121 -0.0465177 0)
(0.60897 -0.0459208 0)
(0.657499 -0.0453886 0)
(0.70543 -0.0449989 0)
(0.752587 -0.044625 0)
(0.798338 -0.0437954 0)
(0.841649 -0.0423718 0)
(0.882352 -0.0402838 0)
(0.920771 -0.0382166 0)
(0.958486 -0.0364253 0)
(0.995974 -0.0346098 0)
(1.03233 -0.0323633 0)
(1.06665 -0.0295663 0)
(1.09938 -0.0264758 0)
(1.13145 -0.0234492 0)
(1.16291 -0.020664 0)
(1.19281 -0.0183462 0)
(1.22072 -0.0165347 0)
(1.24732 -0.0153212 0)
(1.27394 -0.0147745 0)
(1.30112 -0.0146387 0)
(1.32772 -0.0144037 0)
(1.35193 -0.0137595 0)
(1.37359 -0.0128489 0)
(1.394 -0.011969 0)
(1.41455 -0.0113364 0)
(1.43586 -0.0108985 0)
(1.45751 -0.0106534 0)
(1.47836 -0.0100665 0)
(1.49771 -0.00923457 0)
(1.51631 -0.00841444 0)
(1.53504 -0.00723801 0)
(1.55427 -0.00528468 0)
(1.57351 -0.00263995 0)
(1.59206 -0.000293883 0)
(1.61032 0.000954093 0)
(1.62917 0.00141502 0)
(1.64897 0.00105807 0)
(1.66736 0.000107542 0)
(1.68337 -0.000711425 0)
(1.69864 -0.00117924 0)
(1.71315 -0.0014397 0)
(1.72597 -0.00118744 0)
(1.7369 -9.77843e-05 0)
(1.74686 0.00173087 0)
(1.75809 0.00339579 0)
(1.77154 0.00400894 0)
(1.78543 0.00412934 0)
(1.79911 0.00442936 0)
(1.81232 0.00477125 0)
(1.82476 0.00546751 0)
(1.83557 0.00642224 0)
(1.84429 0.00716825 0)
(1.85193 0.0068595 0)
(1.86856 0.00620452 0)
(1.61663 1.21173 0)
(1.03868 0.702563 0)
(0.686731 0.186079 0)
(0.368367 0.0427327 0)
(0.173555 0.0629622 0)
(0.0486766 0.0843027 0)
(-0.0283296 0.05179 0)
(-0.064539 -0.00107948 0)
(-0.0843996 -0.0277651 0)
(-0.0841697 -0.0330888 0)
(-0.0838625 -0.0278636 0)
(-0.085294 -0.0199432 0)
(-0.0876883 -0.00851037 0)
(-0.0877878 0.00171247 0)
(-0.0814509 0.00766565 0)
(-0.0718434 0.00838894 0)
(-0.0584901 0.00329927 0)
(-0.0434936 -0.00468512 0)
(-0.0290223 -0.00979682 0)
(-0.0156776 -0.0131201 0)
(-0.00205473 -0.0152515 0)
(0.0128652 -0.0135555 0)
(0.0313649 -0.0135205 0)
(0.0537436 -0.0162894 0)
(0.0786283 -0.0210954 0)
(0.103481 -0.0265717 0)
(0.127974 -0.0312606 0)
(0.152867 -0.0357638 0)
(0.180147 -0.040865 0)
(0.210859 -0.0452471 0)
(0.244536 -0.0478307 0)
(0.280088 -0.0485906 0)
(0.316803 -0.048958 0)
(0.355046 -0.0503078 0)
(0.395988 -0.0538141 0)
(0.439974 -0.0593048 0)
(0.485657 -0.0650956 0)
(0.530769 -0.0680233 0)
(0.573517 -0.0667442 0)
(0.614597 -0.0628714 0)
(0.65665 -0.0590173 0)
(0.701149 -0.0559875 0)
(0.747107 -0.0530023 0)
(0.79195 -0.049559 0)
(0.834112 -0.046886 0)
(0.874861 -0.0469468 0)
(0.915899 -0.0489473 0)
(0.956819 -0.0508738 0)
(0.994834 -0.0496025 0)
(1.02844 -0.0460321 0)
(1.05916 -0.0435354 0)
(1.09032 -0.0427631 0)
(1.12236 -0.0418 0)
(1.15292 -0.038619 0)
(1.18045 -0.0331437 0)
(1.20647 -0.0271305 0)
(1.23301 -0.0216981 0)
(1.26016 -0.0168684 0)
(1.28621 -0.0121852 0)
(1.31008 -0.00771145 0)
(1.33253 -0.00489627 0)
(1.35481 -0.00485382 0)
(1.37767 -0.00713156 0)
(1.40055 -0.00923286 0)
(1.42165 -0.0093503 0)
(1.44097 -0.0081478 0)
(1.45962 -0.00693735 0)
(1.4781 -0.00653997 0)
(1.49663 -0.00767749 0)
(1.51544 -0.0100902 0)
(1.53383 -0.0121123 0)
(1.5516 -0.0134468 0)
(1.56944 -0.0139551 0)
(1.58814 -0.0129377 0)
(1.60751 -0.00951763 0)
(1.62558 -0.00427161 0)
(1.64313 0.00110919 0)
(1.66003 0.00587666 0)
(1.6756 0.00818901 0)
(1.69038 0.00753898 0)
(1.70493 0.00380906 0)
(1.71959 -0.00109321 0)
(1.73343 -0.00548988 0)
(1.7462 -0.00866997 0)
(1.75793 -0.00953031 0)
(1.76868 -0.00743752 0)
(1.7795 -0.00347634 0)
(1.79131 -0.000735758 0)
(1.80406 3.28514e-05 0)
(1.81706 0.00020147 0)
(1.83023 0.000631925 0)
(1.8432 0.00207547 0)
(1.85571 0.00562105 0)
(1.86668 0.0121762 0)
(1.87326 0.0198093 0)
(1.88514 0.0219119 0)
(1.61329 1.09451 0)
(1.44741 0.998137 0)
(1.33204 0.764822 0)
(0.969964 0.535057 0)
(0.611116 0.346642 0)
(0.383811 0.186926 0)
(0.25721 0.0735767 0)
(0.193868 0.01754 0)
(0.158321 0.00392493 0)
(0.1376 0.0125444 0)
(0.122765 0.0183589 0)
(0.119837 0.0187112 0)
(0.122688 0.015748 0)
(0.128774 0.0125969 0)
(0.137041 0.0113684 0)
(0.14981 0.00927598 0)
(0.17043 0.00208107 0)
(0.198189 -0.00931819 0)
(0.228653 -0.0213991 0)
(0.257308 -0.028392 0)
(0.283008 -0.0307445 0)
(0.307398 -0.0378546 0)
(0.336565 -0.0446379 0)
(0.371701 -0.0511331 0)
(0.410834 -0.0583124 0)
(0.449982 -0.0670032 0)
(0.486065 -0.0768462 0)
(0.518299 -0.0864128 0)
(0.550104 -0.095201 0)
(0.584667 -0.104608 0)
(0.623358 -0.114411 0)
(0.665115 -0.123696 0)
(0.707034 -0.130123 0)
(0.746011 -0.132721 0)
(0.781844 -0.133624 0)
(0.816867 -0.135554 0)
(0.853221 -0.139381 0)
(0.891731 -0.143886 0)
(0.92986 -0.146073 0)
(0.963857 -0.143809 0)
(0.99421 -0.139078 0)
(1.02487 -0.13512 0)
(1.05851 -0.133263 0)
(1.09448 -0.131444 0)
(1.12854 -0.126441 0)
(1.15752 -0.117643 0)
(1.18386 -0.109326 0)
(1.2108 -0.10463 0)
(1.23944 -0.102515 0)
(1.26688 -0.0985146 0)
(1.28871 -0.0918983 0)
(1.3083 -0.0860335 0)
(1.32921 -0.0816768 0)
(1.35139 -0.0766418 0)
(1.37151 -0.0696235 0)
(1.38954 -0.0628836 0)
(1.40771 -0.058185 0)
(1.42708 -0.0546587 0)
(1.44711 -0.0507542 0)
(1.46622 -0.0462122 0)
(1.4835 -0.0414075 0)
(1.50017 -0.0368444 0)
(1.51689 -0.0331312 0)
(1.53373 -0.0307891 0)
(1.54991 -0.0290426 0)
(1.56509 -0.0277002 0)
(1.58029 -0.0255659 0)
(1.59538 -0.0220002 0)
(1.60996 -0.0171422 0)
(1.62369 -0.0122167 0)
(1.63675 -0.00877338 0)
(1.64976 -0.00688307 0)
(1.66352 -0.00638814 0)
(1.67792 -0.00734375 0)
(1.69445 -0.0100675 0)
(1.71145 -0.0119737 0)
(1.7268 -0.0116731 0)
(1.74158 -0.0102103 0)
(1.75498 -0.00652731 0)
(1.7661 -0.00114689 0)
(1.77589 0.00337496 0)
(1.78603 0.00484873 0)
(1.79694 0.00410085 0)
(1.80807 0.00238432 0)
(1.81902 0.000690973 0)
(1.82955 -7.66112e-05 0)
(1.83988 0.00130203 0)
(1.85 0.00400043 0)
(1.8598 0.00671243 0)
(1.86957 0.007253 0)
(1.88004 0.0063595 0)
(1.89128 0.00462545 0)
(1.90261 0.00350027 0)
(1.91381 0.00378259 0)
(1.92318 0.00910299 0)
(1.9335 0.0132727 0)
(1.54961 1.00585 0)
(1.53337 0.969606 0)
(1.66076 0.880782 0)
(1.51861 0.767382 0)
(1.23826 0.581632 0)
(1.00252 0.388533 0)
(0.825074 0.242614 0)
(0.697792 0.15594 0)
(0.625097 0.0965607 0)
(0.586422 0.0600554 0)
(0.549209 0.041569 0)
(0.529022 0.0147128 0)
(0.528338 -0.0182546 0)
(0.544297 -0.0461329 0)
(0.564613 -0.0631174 0)
(0.583151 -0.0721169 0)
(0.606107 -0.077884 0)
(0.635104 -0.0859944 0)
(0.671817 -0.0969803 0)
(0.714042 -0.108441 0)
(0.756164 -0.115255 0)
(0.793902 -0.112109 0)
(0.828008 -0.106155 0)
(0.863976 -0.10377 0)
(0.904968 -0.106845 0)
(0.951086 -0.113686 0)
(0.99878 -0.118818 0)
(1.04167 -0.118285 0)
(1.07654 -0.114078 0)
(1.1065 -0.110462 0)
(1.13633 -0.110729 0)
(1.16935 -0.116247 0)
(1.20597 -0.125306 0)
(1.24197 -0.132928 0)
(1.27128 -0.135286 0)
(1.29295 -0.133306 0)
(1.31097 -0.131318 0)
(1.32988 -0.132777 0)
(1.35248 -0.137222 0)
(1.37618 -0.13982 0)
(1.39482 -0.137432 0)
(1.40854 -0.132302 0)
(1.42208 -0.128049 0)
(1.43878 -0.124646 0)
(1.45829 -0.119812 0)
(1.47551 -0.110991 0)
(1.48817 -0.0999336 0)
(1.50007 -0.0908076 0)
(1.51482 -0.0861362 0)
(1.53331 -0.0826207 0)
(1.54845 -0.075882 0)
(1.55935 -0.0672747 0)
(1.57136 -0.0565387 0)
(1.58577 -0.0463888 0)
(1.5988 -0.0409589 0)
(1.61029 -0.0386867 0)
(1.62143 -0.0344973 0)
(1.63418 -0.0277082 0)
(1.64754 -0.0213366 0)
(1.6604 -0.0194103 0)
(1.67279 -0.0195922 0)
(1.68491 -0.0190066 0)
(1.69723 -0.0169108 0)
(1.70914 -0.0140438 0)
(1.72016 -0.0116943 0)
(1.73 -0.0103662 0)
(1.73949 -0.0102878 0)
(1.74994 -0.0109893 0)
(1.76134 -0.0111767 0)
(1.77297 -0.00934387 0)
(1.78395 -0.0046211 0)
(1.79363 0.00241429 0)
(1.80187 0.00984432 0)
(1.80981 0.0156105 0)
(1.82036 0.0176812 0)
(1.83329 0.0170338 0)
(1.84632 0.0149465 0)
(1.85902 0.0131745 0)
(1.87072 0.0125165 0)
(1.87992 0.0136697 0)
(1.88589 0.0167063 0)
(1.89049 0.0193327 0)
(1.89693 0.0198502 0)
(1.90554 0.0190667 0)
(1.91484 0.018842 0)
(1.92399 0.019973 0)
(1.93296 0.0223687 0)
(1.94123 0.0252699 0)
(1.94804 0.0290293 0)
(1.95346 0.031209 0)
(1.95939 0.0324662 0)
(1.96827 0.0307742 0)
(1.97839 0.0292153 0)
(1.98897 0.0264687 0)
(1.99798 0.0234021 0)
(2.00851 0.0225179 0)
(1.49981 0.947834 0)
(1.52107 0.909926 0)
(1.67918 0.864645 0)
(1.712 0.799725 0)
(1.58599 0.717824 0)
(1.49752 0.565758 0)
(1.3938 0.407534 0)
(1.28411 0.294278 0)
(1.20469 0.194311 0)
(1.16975 0.0938753 0)
(1.13821 0.0300424 0)
(1.10127 -0.000462113 0)
(1.0775 -0.0263869 0)
(1.08083 -0.0501387 0)
(1.10048 -0.0797732 0)
(1.12517 -0.0966784 0)
(1.14565 -0.101181 0)
(1.16494 -0.104261 0)
(1.18782 -0.110375 0)
(1.21862 -0.122168 0)
(1.25757 -0.135806 0)
(1.29798 -0.144666 0)
(1.33212 -0.1455 0)
(1.36002 -0.143753 0)
(1.38657 -0.144357 0)
(1.41568 -0.14996 0)
(1.44936 -0.161227 0)
(1.48568 -0.173697 0)
(1.51783 -0.180831 0)
(1.54141 -0.182253 0)
(1.55879 -0.180446 0)
(1.57447 -0.179217 0)
(1.59206 -0.181628 0)
(1.6127 -0.187076 0)
(1.63178 -0.190723 0)
(1.64345 -0.189088 0)
(1.64846 -0.183593 0)
(1.65144 -0.177469 0)
(1.65621 -0.173101 0)
(1.66585 -0.169021 0)
(1.6755 -0.160113 0)
(1.67915 -0.147899 0)
(1.67995 -0.136138 0)
(1.68251 -0.127073 0)
(1.689 -0.121877 0)
(1.69825 -0.118391 0)
(1.70374 -0.112986 0)
(1.7072 -0.103659 0)
(1.71436 -0.0935626 0)
(1.72524 -0.0853572 0)
(1.73441 -0.0804129 0)
(1.74205 -0.0787437 0)
(1.75021 -0.0744333 0)
(1.7585 -0.0684883 0)
(1.76667 -0.0632337 0)
(1.7754 -0.0580764 0)
(1.78492 -0.0516362 0)
(1.79511 -0.0447801 0)
(1.80529 -0.0400163 0)
(1.81478 -0.0345119 0)
(1.82389 -0.0280175 0)
(1.83349 -0.0252401 0)
(1.84383 -0.0256871 0)
(1.85402 -0.0264949 0)
(1.86361 -0.0252169 0)
(1.87187 -0.0205838 0)
(1.87849 -0.0141075 0)
(1.88486 -0.00866511 0)
(1.89306 -0.00628661 0)
(1.90297 -0.00618109 0)
(1.91342 -0.00638162 0)