/*--------------------------------*- C++ -*----------------------------------*\
  =========                 |
  \\      /  F ield         | OpenFOAM: The Open Source CFD Toolbox
   \\    /   O peration     | Website:  https://openfoam.org
    \\  /    A nd           | Version:  7
     \\/     M anipulation  |
\*---------------------------------------------------------------------------*/
FoamFile
{
    version     2.0;
    format      ascii;
    class       surfaceScalarField;
    location    "20";
    object      phi;
}
// * * * * * * * * * * * * * * * * * * * * * * * * * * * * * * * * * * * * * //

dimensions      [0 3 -1 0 0 0 0];

internalField   nonuniform List<scalar> 
11129
(
-0.000112292
1.63442e-05
-2.7039e-11
-0.000122792
1.04994e-05
-3.1837e-11
-0.000124856
2.06464e-06
-3.66953e-11
-0.000115646
-9.21005e-06
-4.11849e-11
-9.21234e-05
-2.35226e-05
-4.50842e-11
-5.12873e-05
-4.08362e-05
-4.74424e-11
9.16471e-06
-6.04519e-05
-4.8242e-11
8.97407e-05
-8.05759e-05
-4.62656e-11
-9.82557e-05
-4.05696e-11
0.000187996
-0.000107066
3.11855e-05
-0.000115712
1.9146e-05
-0.000115519
1.8709e-06
-0.000103577
-2.11517e-05
-7.67631e-05
-5.03364e-05
-3.19583e-05
-8.56409e-05
3.33048e-05
-0.000125715
0.000119706
-0.000166977
-0.000203587
0.000225038
-9.66706e-05
-0.000101629
2.41048e-05
-9.69407e-05
-2.81772e-06
-7.95635e-05
-3.8529e-05
-4.62049e-05
-8.3695e-05
6.48866e-06
-0.000138334
8.12944e-05
-0.000200521
0.00017925
-0.000264933
-0.000322927
0.00029859
-8.06918e-05
2.35759e-05
-6.93153e-05
-1.41942e-05
-4.38536e-05
-6.39907e-05
-7.60763e-07
-0.000126788
6.36192e-05
-0.000202714
0.000152563
-0.000289464
0.000267599
-0.00037997
-0.000462925
0.000407597
-5.31185e-05
1.58117e-05
-3.29257e-05
-3.43871e-05
3.18544e-06
-0.000100102
5.90645e-05
-0.000182667
0.00013881
-0.00028246
0.00024626
-0.000396914
0.000383601
-0.000517311
-0.000629804
0.00055048
-1.9192e-05
-8.66803e-07
1.186e-05
-6.5439e-05
6.10758e-05
-0.000149318
0.000132675
-0.000254266
0.00023123
-0.000381015
0.00036126
-0.000526944
0.000525724
-0.000681775
-0.000829218
0.000725139
2.07481e-05
-2.80547e-05
6.45967e-05
-0.000109288
0.000129238
-0.000213959
0.000219295
-0.000344323
0.000339856
-0.000501576
0.000496171
-0.00068326
0.000692065
-0.000877668
-0.0010661
0.000928947
6.63139e-05
-6.72491e-05
0.000124771
-0.000167745
0.000206994
-0.000296181
0.000318028
-0.000455358
0.000463482
-0.000647029
0.000649342
-0.00086912
0.000880351
-0.00110868
-0.0013445
0.00115875
0.000117077
-0.000119835
0.000191811
-0.000242479
0.00029358
-0.00039795
0.000427853
-0.000589631
0.000600726
-0.000819902
0.000818865
-0.00108726
0.00108795
-0.00137776
-0.00166745
0.00141089
0.000172577
0.000265091
-0.000334993
0.000388154
-0.000521014
0.00054763
-0.000749107
0.000750033
-0.0010223
0.00100258
-0.00133981
0.00131185
-0.00168702
-0.00203673
0.00168114
0.000343943
-0.000446607
0.0004898
-0.00066687
0.000676104
-0.000935412
0.000909676
-0.00125588
0.00119809
-0.00162822
0.0015487
-0.00203764
-0.00245281
0.00196477
0.00042766
-0.000578438
0.000597531
-0.000836741
0.000811905
-0.00114979
0.00107776
-0.00152173
0.00140274
-0.0019532
0.0017948
-0.0024297
-0.00291458
0.00225658
0.000515497
-0.000731378
0.00071029
-0.00103153
0.000953548
-0.00139304
0.0012522
-0.00182038
0.00161364
-0.00231464
0.00204614
-0.0028622
-0.00341936
0.00255092
0.000606671
0.000826949
-0.00125181
0.00109943
-0.00166552
0.00143077
-0.00215172
0.0018277
-0.00271157
0.00229843
-0.00333293
-0.00396277
0.00284183
0.000946296
-0.00149775
0.00124781
-0.00196703
0.00161103
-0.00251494
0.0020416
-0.00314215
0.0025472
-0.00383853
-0.00453875
0.00312318
0.00106703
-0.00176911
0.00139683
-0.00229683
0.00179039
-0.00290851
0.00225192
-0.00360368
0.00278787
-0.00437448
-0.0051398
0.00338893
0.00118777
0.00154449
-0.00265354
0.00196611
-0.00333013
0.0024551
-0.00409267
0.00301586
-0.00493525
-0.00575757
0.00363363
0.00168867
-0.00303521
0.00213537
-0.00377682
0.00264769
-0.00460499
0.0032267
-0.00551426
-0.00638366
0.0038528
0.00182713
0.0022953
-0.00424498
0.00282663
-0.00513632
0.00341682
-0.00610445
-0.00701192
0.00404508
0.00244277
-0.00473027
0.00298864
-0.00568219
0.00358703
-0.00670285
-0.00763912
0.00421423
0.0025741
0.00312737
-0.00623546
0.00373757
-0.00731305
-0.00840169
0.00450015
0.00323723
0.00383322
-0.00790904
-0.00907679
0.00450832
0.00388707
-0.00847946
-0.00968572
0.004496
0.0039067
-0.0102381
0.00445907
0.00439571
0.0102381
0.00439571
0.0039067
0.00847946
0.00968572
0.00445907
0.00331665
0.00678671
0.00388707
0.00790904
0.00907679
0.004496
0.00323723
0.00623546
0.00383322
0.00731305
0.00840169
0.00450832
0.0025741
0.00473027
0.00312737
0.00568219
0.00373757
0.00670285
0.00763912
0.00450015
0.00244277
0.00424498
0.00298864
0.00513632
0.00358703
0.00610445
0.00701192
0.00421423
0.00182713
0.00303521
0.0022953
0.00377682
0.00282663
0.00460499
0.00341682
0.00551426
0.00638366
0.00404508
0.00168867
0.00265354
0.00213537
0.00333013
0.00264769
0.00409267
0.0032267
0.00493525
0.00575757
0.0038528
0.00118777
0.00176911
0.00154449
0.00229683
0.00196611
0.00290851
0.0024551
0.00360368
0.00301586
0.00437448
0.0051398
0.00363363
0.00106703
0.00149775
0.00139683
0.00196703
0.00179039
0.00251494
0.00225192
0.00314215
0.00278787
0.00383853
0.00453875
0.00338893
0.000946296
0.00125181
0.00124781
0.00166552
0.00161103
0.00215172
0.0020416
0.00271157
0.0025472
0.00333293
0.00396277
0.00312318
0.000606671
0.000731378
0.000826949
0.00103153
0.00109943
0.00139304
0.00143077
0.00182038
0.0018277
0.00231464
0.00229843
0.0028622
0.00341936
0.00284183
0.000515497
0.000578438
0.00071029
0.000836741
0.000953548
0.00114979
0.0012522
0.00152173
0.00161364
0.0019532
0.00204614
0.0024297
0.00291458
0.00255092
0.00042766
0.000446607
0.000597531
0.00066687
0.000811905
0.000935412
0.00107776
0.00125588
0.00140274
0.00162822
0.0017948
0.00203764
0.00245281
0.00225658
0.000343943
0.000334993
0.0004898
0.000521014
0.000676104
0.000749108
0.000909676
0.0010223
0.00119809
0.00133981
0.0015487
0.00168702
0.00203673
0.00196477
0.000172577
0.000119835
0.000265091
0.000242479
0.000388154
0.00039795
0.00054763
0.000589631
0.000750033
0.000819902
0.00100258
0.00108726
0.00131185
0.00137776
0.00166745
0.00168114
0.000117077
6.72491e-05
0.000191811
0.000167745
0.00029358
0.000296181
0.000427853
0.000455358
0.000600726
0.000647029
0.000818865
0.00086912
0.00108795
0.00110868
0.0013445
0.00141089
6.63139e-05
2.80548e-05
0.000124771
0.000109288
0.000206994
0.000213959
0.000318028
0.000344323
0.000463482
0.000501576
0.000649342
0.00068326
0.000880351
0.000877668
0.0010661
0.00115875
2.07481e-05
8.6686e-07
6.45967e-05
6.54391e-05
0.000129238
0.000149318
0.000219295
0.000254266
0.000339856
0.000381015
0.000496171
0.000526944
0.000692065
0.000681775
0.000829218
0.000928947
-1.9192e-05
-1.58117e-05
1.186e-05
3.43871e-05
6.10758e-05
0.000100102
0.000132675
0.000182667
0.00023123
0.00028246
0.00036126
0.000396914
0.000525724
0.000517311
0.000629804
0.000725138
-5.31185e-05
-2.35758e-05
-3.29257e-05
1.41943e-05
3.18543e-06
6.39907e-05
5.90644e-05
0.000126788
0.00013881
0.000202715
0.00024626
0.000289464
0.000383601
0.00037997
0.000462925
0.00055048
-8.06918e-05
-2.41047e-05
-6.93153e-05
2.81779e-06
-4.38536e-05
3.8529e-05
-7.60774e-07
8.36951e-05
6.36192e-05
0.000138335
0.000152563
0.000200521
0.000267599
0.000264933
0.000322927
0.000407597
-9.66706e-05
-3.11855e-05
-0.000101629
-1.91459e-05
-9.69407e-05
-1.87082e-06
-7.95635e-05
2.11518e-05
-4.62049e-05
5.03365e-05
6.48865e-06
8.5641e-05
8.12944e-05
0.000125715
0.00017925
0.000166977
0.000203587
0.00029859
-0.000107066
-1.63441e-05
-0.000115712
-1.04993e-05
-0.000115519
-2.06457e-06
-0.000103577
9.21013e-06
-7.67631e-05
2.35227e-05
-3.19583e-05
4.08362e-05
3.33048e-05
6.0452e-05
0.000119706
8.0576e-05
9.82557e-05
0.000225038
-0.000112292
-0.000122792
-0.000124856
-0.000115646
-9.21235e-05
-5.12873e-05
9.16471e-06
8.97407e-05
0.000187996
0.000240634
-5.26375e-05
-2.20138e-11
0.000291287
-5.06536e-05
-1.52648e-11
0.000341922
-5.06348e-05
-6.66211e-12
0.000393286
-5.13637e-05
3.33922e-12
0.000445993
-5.27072e-05
1.52711e-11
0.000500526
-5.4533e-05
2.94131e-11
0.000557215
-5.66893e-05
4.51352e-11
0.000616288
-5.90727e-05
6.3254e-11
0.00067789
-6.16019e-05
8.33758e-11
0.000742094
-6.42041e-05
1.05347e-10
0.000808909
-6.68152e-05
1.29296e-10
0.000878287
-6.93784e-05
1.54598e-10
0.000950131
-7.18443e-05
1.8127e-10
0.0010243
-7.41708e-05
2.08477e-10
0.00110062
-7.6323e-05
2.35618e-10
0.0011789
-7.82731e-05
2.61809e-10
0.0012589
-7.99996e-05
2.86162e-10
0.00134038
-8.14872e-05
3.07914e-10
0.00142311
-8.27253e-05
3.25882e-10
0.00150682
-8.37085e-05
3.38875e-10
0.00159125
-8.44349e-05
3.45674e-10
0.00167616
-8.49063e-05
3.45361e-10
0.00176128
-8.51271e-05
3.36877e-10
0.00184639
-8.51046e-05
3.19692e-10
0.00193124
-8.48478e-05
2.9318e-10
0.0020156
-8.43677e-05
2.57605e-10
0.00209928
-8.36766e-05
2.13208e-10
0.00218207
-8.27881e-05
1.61294e-10
0.00226378
-8.17164e-05
1.03159e-10
0.00234426
-8.04767e-05
4.13116e-11
0.00242335
-7.90845e-05
-2.15568e-11
0.0025009
-7.75555e-05
-8.19003e-11
0.00257681
-7.59056e-05
-1.35315e-10
0.00265096
-7.41505e-05
-1.77309e-10
0.00272326
-7.23063e-05
-2.02449e-10
0.00279365
-7.03872e-05
-2.05193e-10
0.00286206
-6.84116e-05
-1.79861e-10
0.00292845
-6.63868e-05
-1.21892e-10
0.00299279
-6.43443e-05
-2.52248e-11
0.00305506
-6.22616e-05
1.11564e-10
0.00311529
-6.02309e-05
2.92511e-10
0.00317339
-5.81052e-05
5.12346e-10
0.00322961
-5.62248e-05
7.75767e-10
0.00328357
-5.39572e-05
1.05632e-09
0.00333614
-5.25722e-05
1.37955e-09
0.00338584
-4.97023e-05
1.65079e-09
0.00343559
-4.97503e-05
2.00383e-09
0.0034805
-4.49143e-05
2.1099e-09
0.00352876
-4.82629e-05
2.48506e-09
-4.01528e-05
2.25651e-09
0.000276907
-0.000104507
0.000326895
-0.000100641
0.000376936
-0.000100676
0.000427726
-0.000102153
0.000479862
-0.000104843
0.000533823
-0.000108494
0.000589937
-0.000112803
0.000648428
-0.000117563
0.000709437
-0.000122612
0.000773036
-0.000127803
0.00083923
-0.000133009
0.000907968
-0.000138117
0.000979152
-0.000143028
0.00105264
-0.000147659
0.00112826
-0.000151942
0.00120581
-0.000155822
0.00128506
-0.000159256
0.00136579
-0.000162214
0.00144774
-0.000164677
0.00153067
-0.000166632
0.00161431
-0.000168078
0.00169842
-0.000169016
0.00178275
-0.000169457
0.00186706
-0.000169414
0.00195112
-0.000168906
0.0020347
-0.000167953
0.00211761
-0.000166582
0.00219964
-0.000164818
0.00228061
-0.00016269
0.00236036
-0.000160229
0.00243874
-0.000157464
0.00251561
-0.000154427
0.00259086
-0.00015115
0.00266437
-0.000147664
0.00273607
-0.000144001
0.00280587
-0.000140189
0.00287372
-0.000136264
0.00293958
-0.000132242
0.00300342
-0.000128186
0.00306521
-0.000124049
0.00312499
-0.000120016
0.00318268
-0.000115794
0.00323852
-0.000112063
0.00329212
-0.000107557
0.00334436
-0.000104816
0.00339377
-9.91089e-05
0.00344324
-9.92263e-05
0.00348793
-8.96068e-05
0.00353596
-9.62906e-05
-8.01891e-05
0.000348905
-0.000154822
0.000397534
-0.00014927
0.00044637
-0.000149512
0.000495998
-0.000151782
0.000546985
-0.00015583
0.000599799
-0.000161309
0.000654762
-0.000167765
0.000712089
-0.000174891
0.000771918
-0.00018244
0.00083431
-0.000190196
0.000899267
-0.000197965
0.00096673
-0.00020558
0.0010366
-0.000212896
0.00110873
-0.00021979
0.00118295
-0.000226161
0.00125906
-0.000231931
0.00133684
-0.000237036
0.00141606
-0.000241434
0.00149647
-0.000245094
0.00157784
-0.000248002
0.00165992
-0.000250152
0.00174245
-0.00025155
0.00182521
-0.00025221
0.00190794
-0.000252151
0.00199044
-0.000251402
0.00207248
-0.000249994
0.00215386
-0.000247964
0.0022344
-0.000245352
0.00231391
-0.000242199
0.00239223
-0.000238551
0.00246922
-0.000234452
0.00254474
-0.00022995
0.00261868
-0.000225091
0.00269094
-0.000219921
0.00276142
-0.000214489
0.00283007
-0.000208835
0.00289682
-0.000203016
0.00296163
-0.000197051
0.00302448
-0.000191036
0.00308533
-0.000184901
0.00314424
-0.000178925
0.00320111
-0.000172663
0.00325619
-0.00016714
0.00330909
-0.000160455
0.00336069
-0.000156415
0.00340952
-0.000147938
0.00345846
-0.000148168
0.00350272
-0.000133869
0.00355029
-0.000143862
-0.000120004
0.000455529
-0.000202755
0.000502063
-0.000195804
0.000549044
-0.000196492
0.000596899
-0.000199637
0.000646143
-0.000205074
0.00069723
-0.000212396
0.000750465
-0.000221
0.000806052
-0.000230478
0.000864117
-0.000240505
0.00092471
-0.000250789
0.000987821
-0.000261076
0.00105339
-0.000271145
0.0011213
-0.000280807
0.00119141
-0.000289902
0.00126355
-0.000298302
0.00133752
-0.000305904
0.00141312
-0.000312629
0.0014901
-0.000318421
0.00156825
-0.000323243
0.00164733
-0.000327076
0.00172709
-0.000329912
0.0018073
-0.000331761
0.00188773
-0.000332639
0.00196815
-0.000332574
0.00204835
-0.000331602
0.00212812
-0.000329764
0.00220726
-0.000327109
0.0022856
-0.000323688
0.00236296
-0.000319557
0.00243918
-0.000314774
0.00251413
-0.0003094
0.00258767
-0.000303494
0.0026597
-0.00029712
0.00273012
-0.000290337
0.00279884
-0.000283209
0.00286579
-0.000275791
0.00293093
-0.000268155
0.00299421
-0.000260328
0.00305561
-0.000252437
0.0031151
-0.000244389
0.00317273
-0.000236554
0.0032284
-0.000228338
0.00328237
-0.000221109
0.00333425
-0.000212333
0.00338491
-0.000207078
0.0034329
-0.000195928
0.00348106
-0.000196332
0.00352471
-0.00017751
0.00357162
-0.000190773
-0.000159503
0.000595143
-0.000247417
0.000638786
-0.000239447
0.000683213
-0.00024092
0.000728652
-0.000245076
0.000775543
-0.000251965
0.000824314
-0.000261167
0.000875245
-0.000271932
0.000928522
-0.000283755
0.00098425
-0.000296232
0.00104246
-0.000309002
0.00110314
-0.000321749
0.00116619
-0.000334204
0.00123152
-0.000346136
0.00129898
-0.000357356
0.00136838
-0.000367709
0.00143955
-0.000377073
0.00151228
-0.000385354
0.00158634
-0.000392487
0.00166153
-0.000398427
0.0017376
-0.000403152
0.00181435
-0.000406655
0.00189153
-0.000408946
0.00196894
-0.000410047
0.00204636
-0.000409991
0.00212358
-0.000408821
0.0022004
-0.00040659
0.00227665
-0.000403355
0.00235214
-0.00039918
0.00242672
-0.000394133
0.00250023
-0.000388286
0.00257254
-0.000381712
0.00264353
-0.000374486
0.0027131
-0.000366684
0.00278114
-0.00035838
0.00284758
-0.000349653
0.00291236
-0.000340569
0.00297542
-0.000331219
0.00303673
-0.000321635
0.00309627
-0.000311976
0.003154
-0.000302121
0.00320999
-0.000292538
0.00326413
-0.000282479
0.00331668
-0.000273657
0.00336725
-0.000262902
0.00341671
-0.000256543
0.00346363
-0.000242848
0.00351081
-0.000243508
0.00355366
-0.000220364
0.00359973
-0.000236846
-0.000198614
0.000765578
-0.000287856
0.00080547
-0.000279339
0.000846592
-0.000282042
0.000888935
-0.000287419
0.000932845
-0.000295874
0.000978707
-0.000307029
0.00102677
-0.00031999
0.00107717
-0.00033416
0.00113
-0.000349063
0.00118527
-0.000364269
0.00124293
-0.000379409
0.00130289
-0.000394169
0.00136504
-0.000408285
0.00142923
-0.00042154
0.00149528
-0.000433759
0.00156301
-0.000444804
0.00163222
-0.000454571
0.00170272
-0.000462986
0.0017743
-0.000469999
0.00184673
-0.000475585
0.00191981
-0.000479738
0.00199333
-0.000482467
0.00206709
-0.000483801
0.00214087
-0.000483777
0.0022145
-0.000482446
0.00228778
-0.000479869
0.00236054
-0.000476113
0.00243261
-0.000471253
0.00250384
-0.000465368
0.0025741
-0.000458543
0.00264325
-0.000450864
0.00271118
-0.000442418
0.0027778
-0.000433295
0.002843
-0.000423583
0.00290672
-0.000413373
0.00296889
-0.000402745
0.00302948
-0.000391806
0.00308844
-0.000380592
0.00314575
-0.000369293
0.0032014
-0.000357764
0.00325543
-0.000346567
0.00330774
-0.000334798
0.00335861
-0.00032452
0.00340763
-0.000311924
0.00345568
-0.000304592
0.00350134
-0.000288507
0.00354735
-0.00028952
0.00358929
-0.000262302
0.00363438
-0.000281938
-0.000237289
0.000964147
-0.000323056
0.000999369
-0.000314562
0.00103639
-0.00031906
0.00107493
-0.000325958
0.00111521
-0.000336161
0.00115758
-0.000349391
0.0012022
-0.000364614
0.00124919
-0.000381148
0.00129858
-0.000398455
0.00135036
-0.000416046
0.00140445
-0.000433503
0.00146076
-0.000450479
0.00151916
-0.000466682
0.00157949
-0.000481875
0.0016416
-0.000495868
0.00170531
-0.000508512
0.00177043
-0.000519693
0.00183678
-0.000529332
0.00190415
-0.000537376
0.00197236
-0.000543796
0.00204121
-0.000548586
0.0021105
-0.000551759
0.00218005
-0.000553345
0.00224966
-0.000553387
0.00231916
-0.000551944
0.00238837
-0.000549081
0.00245713
-0.000544877
0.00252529
-0.000539416
0.00259271
-0.000532787
0.00265926
-0.000525087
0.00272481
-0.000516413
0.00278926
-0.000506866
0.00285251
-0.000496548
0.00291448
-0.000485557
0.00297511
-0.000474001
0.00303434
-0.000461969
0.00309211
-0.000449584
0.00314841
-0.000436886
0.00320321
-0.000424099
0.0032565
-0.000411047
0.00330832
-0.000398389
0.00335859
-0.000385066
0.00340756
-0.000373488
0.00345484
-0.000359211
0.00350131
-0.000351059
0.00354557
-0.000332765
0.00359029
-0.000334241
0.00363122
-0.000303238
0.00367524
-0.000325952
-0.000275513
0.00118765
-0.000351951
0.00121725
-0.00034416
0.00124933
-0.000351141
0.00128334
-0.000359967
0.00131936
-0.000372189
0.00135765
-0.000387675
0.00139829
-0.00040526
0.00144134
-0.000424194
0.00148677
-0.00044389
0.00153454
-0.000463811
0.00158454
-0.000483507
0.00163667
-0.000502603
0.00169078
-0.000520792
0.00174673
-0.000537824
0.00180436
-0.000553499
0.00186351
-0.000567661
0.001924
-0.00058019
0.00198567
-0.000591003
0.00204834
-0.000600043
0.00211183
-0.00060728
0.00217595
-0.000612709
0.00224053
-0.000616342
0.0023054
-0.000618213
0.00237038
-0.00061837
0.00243531
-0.000616875
0.00250004
-0.000613803
0.0025644
-0.000609239
0.00262826
-0.000603275
0.00269148
-0.000596012
0.00275395
-0.000587555
0.00281555
-0.000578014
0.00287619
-0.0005675
0.00293576
-0.000556127
0.00299421
-0.000544006
0.00305147
-0.000531255
0.00310747
-0.000517975
0.00316219
-0.000504305
0.0032156
-0.000490288
0.00326768
-0.000476179
0.0033184
-0.000461772
0.00336784
-0.000447827
0.00341589
-0.00043312
0.00346282
-0.000420417
0.00350825
-0.000404637
0.00355302
-0.000395833
0.00359579
-0.000375535
0.00363915
-0.000377594
0.00367904
-0.000343133
0.00372193
-0.000368837
-0.000313305
0.00143238
-0.000373442
0.0014554
-0.000367182
0.00148171
-0.000377452
0.00151048
-0.000388734
0.00154163
-0.000403339
0.00157528
-0.000421327
0.00161143
-0.000441412
0.00165004
-0.0004628
0.00169103
-0.000484874
0.00173429
-0.000507072
0.0017797
-0.000528923
0.00182714
-0.000550044
0.00187647
-0.000570121
0.00192755
-0.000588898
0.00198022
-0.000606171
0.00203434
-0.00062178
0.00208975
-0.000635603
0.0021463
-0.000647553
0.00220383
-0.00065757
0.00226217
-0.000665624
0.00232117
-0.000671707
0.00238066
-0.000675834
0.00244049
-0.00067804
0.00250049
-0.000678375
0.00256052
-0.000676907
0.00262044
-0.000673716
0.00268009
-0.000668895
0.00273936
-0.000662542
0.00279812
-0.000654769
0.00285625
-0.000645689
0.00291366
-0.000635422
0.00297025
-0.00062409
0.00302594
-0.000611817
0.00308066
-0.000598726
0.00313435
-0.000584948
0.00318697
-0.00057059
0.00323847
-0.00055581
0.00328884
-0.00054065
0.00333806
-0.000525401
0.00338611
-0.000509822
0.00343306
-0.000494775
0.00347881
-0.000478873
0.00352363
-0.000465234
0.00356713
-0.000448144
0.00361017
-0.000438872
0.00365143
-0.000416791
0.0036934
-0.000419561
0.00373226
-0.000382001
0.00377402
-0.000410597
-0.000350728
0.00169415
-0.000386455
0.0017097
-0.000382729
0.00172945
-0.000397204
0.00175231
-0.000411593
0.00177802
-0.000429046
0.00180653
-0.000449842
0.00183771
-0.000472596
0.00187142
-0.000496503
0.00190749
-0.000520947
0.00194578
-0.000545365
0.00198615
-0.000569291
0.00202845
-0.000592347
0.00207255
-0.000614221
0.00211832
-0.000634661
0.00216561
-0.000653464
0.0022143
-0.000670469
0.00226425
-0.000685552
0.00231532
-0.000698622
0.00236737
-0.000709619
0.00242025
-0.000718509
0.00247383
-0.000725283
0.00252795
-0.000729957
0.00258247
-0.000732565
0.00263726
-0.000733161
0.00269217
-0.000731816
0.00274707
-0.000728615
0.00280183
-0.000723654
0.00285633
-0.000717043
0.00291046
-0.000708898
0.00296411
-0.000699341
0.00301719
-0.000688503
0.00306961
-0.000676514
0.0031213
-0.000663509
0.0031722
-0.00064962
0.00322224
-0.000634991
0.00327139
-0.000619737
0.00331961
-0.000604032
0.00336688
-0.000587919
0.0034132
-0.000571722
0.00345854
-0.000555164
0.00350298
-0.000539213
0.00354642
-0.000522313
0.00358912
-0.000507938
0.00363072
-0.000489745
0.00367205
-0.000480196
0.00371183
-0.000456573
0.00375245
-0.000460186
0.00379037
-0.000419915
0.00383106
-0.000451294
-0.000387886
0.00196833
-0.000390012
0.00197562
-0.000390015
0.00198812
-0.000409712
0.0020045
-0.000427974
0.00202429
-0.000448827
0.00204722
-0.000472777
0.00207301
-0.000498384
0.00210138
-0.000524875
0.00213211
-0.000551679
0.00216501
-0.000578263
0.00219991
-0.00060419
0.00223666
-0.0006291
0.00227514
-0.000652699
0.00231522
-0.000674743
0.00235679
-0.000695032
0.00239973
-0.000713408
0.00244392
-0.000729743
0.00248924
-0.000743945
0.00253557
-0.00075595
0.00258279
-0.000765721
0.00263075
-0.000773248
0.00267934
-0.000778545
0.00272842
-0.000781645
0.00277786
-0.000782604
0.00282754
-0.000781496
0.00287734
-0.000778408
0.00292713
-0.000773444
0.0029768
-0.000766717
0.00302625
-0.000758351
0.00307539
-0.000748477
0.00312412
-0.000737233
0.00317236
-0.000724758
0.00322005
-0.000711197
0.00326712
-0.000696693
0.00331353
-0.000681398
0.00335923
-0.000665438
0.0034042
-0.000649002
0.00344842
-0.000632132
0.00349188
-0.000615186
0.00353457
-0.000597851
0.00357655
-0.000581201
0.00361775
-0.000563508
0.00365842
-0.000548607
0.0036982
-0.000529525
0.0037379
-0.000519898
0.00377631
-0.000494986
0.0038157
-0.000499576
0.00385279
-0.000457004
0.00389255
-0.00049105
-0.000424927
0.00224987
-0.000383307
0.00224832
-0.000388465
0.00225308
-0.00041447
0.00226256
-0.000437453
0.00227605
-0.00046231
0.00229304
-0.000489769
0.00231305
-0.000518399
0.00233571
-0.000547528
0.0023607
-0.000576675
0.00238781
-0.000605374
0.00241686
-0.000633238
0.00244771
-0.000659947
0.00248023
-0.000685226
0.00251434
-0.000708846
0.00254992
-0.000730612
0.00258688
-0.000750367
0.00262512
-0.000767982
0.00266453
-0.00078336
0.00270501
-0.000796433
0.00274645
-0.00080716
0.00278873
-0.000815528
0.00283173
-0.000821548
0.00287534
-0.000825253
0.00291944
-0.000826698
0.0029639
-0.000825959
0.00300862
-0.000823127
0.00305348
-0.000818308
0.00309839
-0.000811622
0.00314323
-0.000803199
0.00318793
-0.000793176
0.0032324
-0.0007817
0.00327656
-0.000768918
0.00332035
-0.000754986
0.00336371
-0.000740054
0.0034066
-0.000724286
0.00344898
-0.000707814
0.00349082
-0.000690845
0.0035321
-0.000673418
0.00357285
-0.000655927
0.00361302
-0.000638022
0.0036527
-0.000620882
0.0036918
-0.000602609
0.00373058
-0.000587392
0.0037687
-0.000567643
0.00380695
-0.000558142
0.00384416
-0.000532204
0.00388249
-0.000537902
0.00391894
-0.000493459
0.00395794
-0.00053005
-0.000462048
0.00253343
-0.000365813
0.00252278
-0.000377816
0.00251954
-0.000411233
0.0025219
-0.000439809
0.00252885
-0.00046926
0.00253961
-0.000500532
0.00255352
-0.000532311
0.0025701
-0.000564104
0.00258899
-0.000595569
0.00260996
-0.000626342
0.00263283
-0.000656109
0.00265748
-0.000684592
0.0026838
-0.000711547
0.00271171
-0.000736757
0.00274113
-0.000760034
0.00277198
-0.000781219
0.00280418
-0.00080018
0.00283764
-0.000816815
0.00287225
-0.00083105
0.00290793
-0.00084284
0.00294457
-0.000852166
0.00298206
-0.000859036
0.00302029
-0.000863481
0.00305915
-0.000865557
0.00309853
-0.000865338
0.00313832
-0.000862918
0.00317842
-0.000858407
0.00321872
-0.00085193
0.00325915
-0.000843622
0.0032996
-0.000833628
0.00334
-0.000822101
0.00338028
-0.000809198
0.00342038
-0.000795083
0.00346024
-0.000779913
0.00349982
-0.000763867
0.00353908
-0.000747081
0.00357802
-0.000729779
0.0036166
-0.000711998
0.00365484
-0.000694169
0.00369272
-0.0006759
0.00373032
-0.000658481
0.00376755
-0.00063984
0.00380468
-0.000624523
0.00384137
-0.000604332
0.00387838
-0.000595158
0.00391465
-0.000568467
0.00395214
-0.0005754
0.00398821
-0.000529528
0.0040267
-0.000568538
-0.00049949
0.00281344
-0.000337417
0.00279387
-0.000358248
0.00278273
-0.000400098
0.00277797
-0.000435042
0.00277827
-0.000469565
0.00278258
-0.000504839
0.00279008
-0.000539815
0.00280025
-0.000574266
0.0028127
-0.000608028
0.00282722
-0.000640861
0.00284365
-0.000672534
0.00286188
-0.000702819
0.00288183
-0.000731497
0.00290343
-0.000758364
0.00292663
-0.000783235
0.00295136
-0.000805947
0.00297755
-0.000826364
0.00300511
-0.000844377
0.00303396
-0.000859905
0.00306402
-0.000872897
0.00309518
-0.000883327
0.00312734
-0.000891199
0.0031604
-0.000896542
0.00319426
-0.00089941
0.0032288
-0.000899878
0.00326392
-0.000898041
0.00329952
-0.000894013
0.00333552
-0.000887923
0.00337181
-0.000879911
0.00340831
-0.000870128
0.00344494
-0.000858736
0.00348164
-0.0008459
0.00351835
-0.000831791
0.00355502
-0.000816577
0.0035916
-0.000800447
0.00362806
-0.000783544
0.00366439
-0.000766109
0.00370057
-0.000748176
0.00373661
-0.000730213
0.0037725
-0.000711787
0.00380832
-0.0006943
0.00384398
-0.000675504
0.00387976
-0.000660299
0.00391532
-0.000639893
0.00395141
-0.000631248
0.00398702
-0.000604077
0.00402399
-0.000612369
0.00405998
-0.000565519
0.00409826
-0.000606821
-0.00053754
0.00308438
-0.000298614
0.00305668
-0.000330549
0.00303814
-0.000381558
0.00302646
-0.000423363
0.00302008
-0.000463185
0.0030177
-0.000502466
0.00301849
-0.000540599
0.0030219
-0.000577683
0.00302762
-0.000613745
0.00303544
-0.000648677
0.00304523
-0.000682324
0.00305691
-0.000714503
0.00307043
-0.000745016
0.00308573
-0.000773666
0.00310277
-0.000800268
0.00312147
-0.000824656
0.00314179
-0.000846684
0.00316365
-0.000866235
0.00318697
-0.000883222
0.00321166
-0.000897584
0.00323762
-0.000909291
0.00326476
-0.000918341
0.00329298
-0.00092476
0.00332217
-0.000928599
0.00335223
-0.000929935
0.00338305
-0.000928865
0.00341454
-0.000925503
0.0034466
-0.000919984
0.00347914
-0.000912453
0.00351209
-0.000903069
0.00354535
-0.000891999
0.00357887
-0.000879417
0.00361258
-0.000865505
0.00364644
-0.000850439
0.00368041
-0.000834417
0.00371446
-0.000817592
0.00374857
-0.000800221
0.00378273
-0.000782334
0.00381695
-0.000764439
0.00385123
-0.000746059
0.00388564
-0.000728711
0.0039201
-0.00070997
0.00395489
-0.000695087
0.00398969
-0.000674692
0.00402521
-0.00066677
0.00406054
-0.0006394
0.00409733
-0.000649164
0.00413361
-0.000601794
0.00417204
-0.000645258
-0.000576528
0.00334112
-0.000250804
0.00330682
-0.000296249
0.0032817
-0.000356444
0.00326339
-0.00040505
0.00325022
-0.000450019
0.00324087
-0.00049311
0.00323457
-0.000534304
0.00323091
-0.000574025
0.00322963
-0.000612461
0.00323057
-0.000649613
0.00323363
-0.000685389
0.00323876
-0.000719634
0.00324591
-0.000752166
0.00325504
-0.000782791
0.00326609
-0.000811319
0.00327901
-0.000837578
0.00329374
-0.000861414
0.00331021
-0.000882703
0.00332833
-0.000901345
0.00334802
-0.000917275
0.00336919
-0.000930454
0.00339172
-0.000940878
0.00341553
-0.000948567
0.0034405
-0.000953572
0.00346654
-0.000955968
0.00349352
-0.000955854
0.00352137
-0.000953348
0.00354997
-0.000948588
0.00357925
-0.000941727
0.00360911
-0.000932928
0.00363948
-0.000922368
0.00367029
-0.000910227
0.00370148
-0.000896699
0.00373301
-0.000881967
0.00376483
-0.000866244
0.00379693
-0.000849686
0.00382928
-0.000832571
0.00386187
-0.000814923
0.00389472
-0.000797293
0.00392782
-0.000779158
0.00396126
-0.000762151
0.00399496
-0.00074367
0.00402919
-0.000729315
0.00406365
-0.000709153
0.00409902
-0.000702144
0.00413448
-0.000674854
0.00417151
-0.000686196
0.00420848
-0.000638763
0.00424749
-0.000684265
-0.000616822
0.00357954
-0.000196719
0.00354084
-0.000257545
0.00351
-0.0003256
0.00348509
-0.000380143
0.00346479
-0.000429716
0.00344799
-0.00047631
0.0034342
-0.000520518
0.00342316
-0.000562988
0.0034147
-0.000603998
0.0034087
-0.000643612
0.00340508
-0.000681774
0.0034038
-0.000718348
0.00340479
-0.000753158
0.00340801
-0.00078601
0.0034134
-0.000816712
0.0034209
-0.000845083
0.00343045
-0.000870963
0.00344197
-0.000894217
0.00345536
-0.000914739
0.00347054
-0.000932456
0.00348741
-0.000947323
0.00350586
-0.00095933
0.00352579
-0.000968496
0.00354709
-0.000974869
0.00356964
-0.000978524
0.00359335
-0.000979562
0.00361811
-0.000978105
0.00364382
-0.000974294
0.00367038
-0.000968289
0.00369771
-0.00096026
0.00372574
-0.000950393
0.00375438
-0.000938877
0.0037836
-0.000925915
0.00381333
-0.0009117
0.00384355
-0.000896457
0.00387421
-0.00088035
0.00390532
-0.000863677
0.00393685
-0.000846456
0.00396884
-0.000829281
0.00400126
-0.000811583
0.00403422
-0.000795111
0.00406765
-0.000777092
0.00410179
-0.000763462
0.00413639
-0.000743752
0.00417209
-0.000737839
0.00420814
-0.000710909
0.00424587
-0.000723925
0.00428399
-0.000676884
0.00432403
-0.000724303
-0.000658826
0.00379663
-0.000140545
0.00375626
-0.000217176
0.00372013
-0.000289475
0.00368811
-0.000348125
0.00365993
-0.000401531
0.00363505
-0.000451432
0.00361335
-0.000498816
0.00359472
-0.000544356
0.00357904
-0.000588314
0.0035662
-0.000630773
0.00355611
-0.000671691
0.00354871
-0.000710943
0.00354391
-0.000748359
0.00354165
-0.000783747
0.00354185
-0.000816913
0.00354444
-0.000847673
0.00354934
-0.00087586
0.00355645
-0.000901333
0.00356569
-0.000923979
0.00357695
-0.000943718
0.00359013
-0.0009605
0.00360511
-0.000974312
0.00362178
-0.000985168
0.00364003
-0.000993116
0.00365974
-0.000998232
0.00368079
-0.00100062
0.00370309
-0.0010004
0.00372652
-0.000997727
0.003751
-0.000992761
0.00377642
-0.000985684
0.00380271
-0.000976688
0.00382981
-0.000965973
0.00385765
-0.000953753
0.00388618
-0.00094023
0.00391536
-0.000925643
0.00394518
-0.000910163
0.00397561
-0.000894109
0.00400665
-0.000877494
0.00403832
-0.000860955
0.00407062
-0.000843879
0.00410364
-0.000828132
0.00413731
-0.000810768
0.0041719
-0.000798053
0.00420716
-0.00077901
0.00424369
-0.000774367
0.00428085
-0.000748073
0.00431978
-0.00076285
0.00435955
-0.000716655
0.00440112
-0.000765874
-0.000702974
0.00399252
-8.79824e-05
0.00395355
-0.000178209
0.00391104
-0.000246967
0.00387033
-0.000307412
0.00383298
-0.000364176
0.0037992
-0.000417658
0.00376917
-0.000468784
0.00374282
-0.000518007
0.00372
-0.000565499
0.00370057
-0.000611336
0.00368436