/*--------------------------------*- C++ -*----------------------------------*\
  =========                 |
  \\      /  F ield         | OpenFOAM: The Open Source CFD Toolbox
   \\    /   O peration     | Website:  https://openfoam.org
    \\  /    A nd           | Version:  7
     \\/     M anipulation  |
\*---------------------------------------------------------------------------*/
FoamFile
{
    version     2.0;
    format      ascii;
    class       surfaceScalarField;
    location    "15";
    object      phi;
}
// * * * * * * * * * * * * * * * * * * * * * * * * * * * * * * * * * * * * * //

dimensions      [0 3 -1 0 0 0 0];

internalField   nonuniform List<scalar> 
11129
(
-0.000112438
1.63648e-05
-1.28693e-11
-0.000122949
1.05114e-05
-1.63354e-11
-0.000125012
2.06298e-06
-2.05831e-11
-0.00011578
-9.23227e-06
-2.56308e-11
-9.22052e-05
-2.35747e-05
-3.2361e-11
-5.12745e-05
-4.09307e-05
-4.08314e-11
9.32912e-06
-6.06035e-05
-5.20952e-11
9.01285e-05
-8.07993e-05
-6.65935e-11
-9.85613e-05
-8.5406e-11
0.00018869
-0.0001072
3.12234e-05
-0.000115854
1.91657e-05
-0.000115653
1.86201e-06
-0.000103682
-2.12032e-05
-7.68076e-05
-5.04494e-05
-3.18971e-05
-8.58412e-05
3.35317e-05
-0.000126032
0.000120174
-0.000167442
-0.000204222
0.000225835
-9.67824e-05
-0.00010174
2.41236e-05
-9.70336e-05
-2.84473e-06
-7.96132e-05
-3.86235e-05
-4.61766e-05
-8.38861e-05
6.64448e-06
-0.000138662
8.16432e-05
-0.000201031
0.000179874
-0.000265673
-0.000323934
0.000299587
-8.07579e-05
2.35815e-05
-6.93475e-05
-1.42551e-05
-4.38227e-05
-6.41483e-05
-6.25579e-07
-0.000127083
6.39115e-05
-0.000203199
0.000153086
-0.000290206
0.000268447
-0.000381034
-0.000464366
0.000408879
-5.31274e-05
1.57885e-05
-3.28808e-05
-3.45017e-05
3.31824e-06
-0.000100347
5.93313e-05
-0.000183096
0.000139274
-0.000283142
0.000247002
-0.000397934
0.000384727
-0.000518759
-0.000631753
0.000552114
-1.91336e-05
-9.37333e-07
1.19954e-05
-6.56306e-05
6.13281e-05
-0.00014968
0.000133097
-0.000254865
0.000231892
-0.000381937
0.000362254
-0.000528297
0.000527167
-0.000683671
-0.000831755
0.000727169
2.08817e-05
-2.81929e-05
6.48327e-05
-0.000109582
0.000129622
-0.00021447
0.000219888
-0.000345131
0.000340735
-0.000502784
0.000497438
-0.000685
0.000693846
-0.000880079
-0.0010693
0.000931395
6.65276e-05
-6.74764e-05
0.000125114
-0.000168168
0.000207518
-0.000296873
0.000318801
-0.000456414
0.000464587
-0.000648571
0.000650888
-0.000871301
0.000882475
-0.00111167
-0.00134845
0.00116162
0.000117373
-0.000120173
0.000192263
-0.000243058
0.000294246
-0.000398856
0.000428806
-0.000590974
0.000602056
-0.000821821
0.000820684
-0.00108993
0.0010904
-0.00138138
-0.00167218
0.00141413
0.000172956
0.000265652
-0.000335754
0.00038896
-0.000522164
0.000548758
-0.000750772
0.000751576
-0.00102464
0.00100466
-0.00134301
0.00131459
-0.00169131
-0.0020423
0.00168471
0.000344608
-0.000447575
0.000490737
-0.000668293
0.000677393
-0.000937428
0.000911413
-0.00125866
0.00120039
-0.00163198
0.00155169
-0.00204262
-0.00245922
0.00196861
0.000428421
-0.000579634
0.000598588
-0.00083846
0.000813339
-0.00115218
0.00107966
-0.00152498
0.00140522
-0.00195754
0.00179798
-0.00243538
-0.00292182
0.00226058
0.000516345
-0.000732819
0.000711452
-0.00103357
0.000955102
-0.00139583
0.00125424
-0.00182412
0.00161625
-0.00231955
0.00204943
-0.00286855
-0.00342738
0.00255499
0.000607592
0.000828196
-0.00125417
0.00110107
-0.00166871
0.0014329
-0.00215594
0.00183038
-0.00271703
0.00230175
-0.00333992
-0.00397149
0.00284585
0.000947608
-0.00150044
0.00124952
-0.00197062
0.0016132
-0.00251962
0.0020443
-0.00314813
0.00255047
-0.00384609
-0.00454807
0.00312705
0.00106839
-0.00177213
0.00139857
-0.0023008
0.00179257
-0.00291362
0.00225457
-0.00361014
0.00279101
-0.00438252
-0.00514959
0.00339254
0.00118914
0.00154623
-0.00265788
0.00196825
-0.00333564
0.00245764
-0.00409954
0.00301879
-0.00494367
-0.00576769
0.00363689
0.00169038
-0.00303988
0.00213741
-0.00378268
0.00265007
-0.00461219
0.00322935
-0.00552295
-0.00639397
0.00385563
0.00182877
0.00229722
-0.00425112
0.00282878
-0.00514375
0.00341911
-0.00611328
-0.00702229
0.00404743
0.00244452
-0.00473662
0.00299052
-0.00568975
0.00358892
-0.00671168
-0.00764934
0.00421597
0.00257565
0.00312895
-0.00624306
0.00373902
-0.00732174
-0.00841145
0.00450112
0.00323849
0.00383424
-0.00791749
-0.00908602
0.00450881
0.00388768
-0.00848758
-0.00969439
0.00449605
0.00390693
-0.0102462
0.00445871
0.00439498
0.0102462
0.00439498
0.00390693
0.00848758
0.00969439
0.00445871
0.00331759
0.00679425
0.00388768
0.00791749
0.00908602
0.00449605
0.00323849
0.00624306
0.00383424
0.00732174
0.00841145
0.00450881
0.00257565
0.00473662
0.00312895
0.00568976
0.00373902
0.00671168
0.00764934
0.00450112
0.00244452
0.00425112
0.00299052
0.00514375
0.00358892
0.00611328
0.00702229
0.00421597
0.00182877
0.00303988
0.00229722
0.00378268
0.00282878
0.00461219
0.00341911
0.00552295
0.00639398
0.00404743
0.00169038
0.00265788
0.00213741
0.00333564
0.00265007
0.00409954
0.00322935
0.00494367
0.00576769
0.00385563
0.00118914
0.00177213
0.00154623
0.0023008
0.00196825
0.00291362
0.00245764
0.00361014
0.00301879
0.00438252
0.00514959
0.00363689
0.00106839
0.00150044
0.00139857
0.00197062
0.00179257
0.00251962
0.00225457
0.00314813
0.00279101
0.00384609
0.00454807
0.00339254
0.000947608
0.00125417
0.00124952
0.00166871
0.0016132
0.00215594
0.0020443
0.00271703
0.00255047
0.00333992
0.00397149
0.00312705
0.000607592
0.000732819
0.000828196
0.00103357
0.00110107
0.00139583
0.0014329
0.00182412
0.00183038
0.00231955
0.00230175
0.00286856
0.00342738
0.00284585
0.000516345
0.000579634
0.000711452
0.00083846
0.000955103
0.00115218
0.00125424
0.00152498
0.00161625
0.00195754
0.00204943
0.00243538
0.00292182
0.00255499
0.000428421
0.000447575
0.000598588
0.000668293
0.000813339
0.000937428
0.00107966
0.00125866
0.00140522
0.00163198
0.00179798
0.00204262
0.00245922
0.00226058
0.000344608
0.000335754
0.000490737
0.000522164
0.000677393
0.000750772
0.000911413
0.00102464
0.00120039
0.00134301
0.00155169
0.00169131
0.0020423
0.00196861
0.000172956
0.000120173
0.000265652
0.000243058
0.00038896
0.000398856
0.000548758
0.000590974
0.000751576
0.000821821
0.00100466
0.00108993
0.00131459
0.00138138
0.00167218
0.00168471
0.000117373
6.74764e-05
0.000192263
0.000168168
0.000294246
0.000296873
0.000428806
0.000456414
0.000602056
0.000648571
0.000820684
0.000871301
0.0010904
0.00111167
0.00134845
0.00141413
6.65276e-05
2.81929e-05
0.000125114
0.000109582
0.000207518
0.00021447
0.000318801
0.000345131
0.000464587
0.000502784
0.000650888
0.000685
0.000882475
0.000880079
0.0010693
0.00116162
2.08817e-05
9.37373e-07
6.48327e-05
6.56306e-05
0.000129622
0.00014968
0.000219888
0.000254865
0.000340735
0.000381937
0.000497438
0.000528297
0.000693846
0.000683671
0.000831755
0.000931395
-1.91335e-05
-1.57884e-05
1.19954e-05
3.45017e-05
6.13281e-05
0.000100347
0.000133097
0.000183096
0.000231892
0.000283142
0.000362254
0.000397935
0.000527167
0.000518759
0.000631753
0.000727169
-5.31274e-05
-2.35815e-05
-3.28808e-05
1.42552e-05
3.31825e-06
6.41483e-05
5.93313e-05
0.000127083
0.000139274
0.000203199
0.000247002
0.000290206
0.000384727
0.000381034
0.000464366
0.000552114
-8.07578e-05
-2.41236e-05
-6.93475e-05
2.84477e-06
-4.38227e-05
3.86236e-05
-6.25568e-07
8.38862e-05
6.39116e-05
0.000138662
0.000153086
0.000201031
0.000268447
0.000265673
0.000323935
0.000408879
-9.67824e-05
-3.12234e-05
-0.00010174
-1.91657e-05
-9.70335e-05
-1.86197e-06
-7.96132e-05
2.12033e-05
-4.61766e-05
5.04495e-05
6.64449e-06
8.58413e-05
8.16432e-05
0.000126032
0.000179874
0.000167442
0.000204222
0.000299587
-0.0001072
-1.63648e-05
-0.000115854
-1.05114e-05
-0.000115653
-2.06294e-06
-0.000103682
9.23232e-06
-7.68076e-05
2.35748e-05
-3.18971e-05
4.09308e-05
3.35317e-05
6.06036e-05
0.000120174
8.07994e-05
9.85614e-05
0.000225835
-0.000112438
-0.000122949
-0.000125012
-0.00011578
-9.22052e-05
-5.12745e-05
9.32912e-06
9.01285e-05
0.00018869
0.000241512
-5.28219e-05
-7.02995e-11
0.000292364
-5.08517e-05
-8.08241e-11
0.000343216
-5.08523e-05
-9.24172e-11
0.000394819
-5.16034e-05
-1.05191e-10
0.000447791
-5.29719e-05
-1.18916e-10
0.000502617
-5.48257e-05
-1.33192e-10
0.00055963
-5.70131e-05
-1.48111e-10
0.000619062
-5.94311e-05
-1.62835e-10
0.000681061
-6.19988e-05
-1.77343e-10
0.000745705
-6.46437e-05
-1.90877e-10
0.000813007
-6.73022e-05
-2.02768e-10
0.000882925
-6.99179e-05
-2.12499e-10
0.000955367
-7.24419e-05
-2.18727e-10
0.0010302
-7.48324e-05
-2.20971e-10
0.00110726
-7.70551e-05
-2.18193e-10
0.00118634
-7.90827e-05
-2.09183e-10
0.00126723
-8.08942e-05
-1.92919e-10
0.00134971
-8.24749e-05
-1.68216e-10
0.00143352
-8.38153e-05
-1.34288e-10
0.00151843
-8.49104e-05
-9.05303e-11
0.00160419
-8.57595e-05
-3.64167e-11
0.00169056
-8.63655e-05
2.83409e-11
0.00177729
-8.67342e-05
1.03739e-10
0.00186417
-8.68744e-05
1.88804e-10
0.00195096
-8.67971e-05
2.82637e-10
0.00203748
-8.65154e-05
3.83426e-10
0.00212352
-8.60444e-05
4.88658e-10
0.00220892
-8.54007e-05
5.9558e-10
0.00229352
-8.46026e-05
7.00629e-10
0.00237719
-8.36698e-05
8.0005e-10
0.00245982
-8.26232e-05
8.89318e-10
0.0025413
-8.14853e-05
9.63929e-10
0.00262158
-8.028e-05
1.01999e-09
0.00270061
-7.90323e-05
1.05256e-09
0.00277838
-7.77703e-05
1.05909e-09
0.0028549
-7.65198e-05
1.03484e-09
0.00293021
-7.53173e-05
9.79733e-10
0.00300439
-7.41802e-05
8.91573e-10
0.00307757
-7.31734e-05
7.6991e-10
0.00314983
-7.22608e-05
6.17066e-10
0.00322145
-7.16221e-05
4.35077e-10
0.00329243
-7.09845e-05
2.28615e-10
0.00336342
-7.09857e-05
2.31938e-13
0.00343386
-7.04431e-05
-2.3731e-10
0.00350553
-7.16681e-05
-4.87849e-10
0.00357591
-7.03816e-05
-7.12777e-10
0.00365014
-7.42216e-05
-9.5386e-10
0.00372025
-7.01135e-05
-1.08512e-09
0.00379886
-7.86078e-05
-1.28884e-09
-7.15637e-05
-1.21014e-09
0.000277891
-0.000104878
0.000328079
-0.00010104
0.000378341
-0.000101115
0.000429374
-0.000102636
0.000481778
-0.000105376
0.000536035
-0.000109083
0.000592476
-0.000113454
0.000651329
-0.000118283
0.000712739
-0.000123409
0.000776781
-0.000128686
0.000843466
-0.000133987
0.000912747
-0.000139199
0.000984532
-0.000144227
0.00105869
-0.000148986
0.00113504
-0.00015341
0.0012134
-0.000157444
0.00129356
-0.000161048
0.00137527
-0.000164193
0.00145832
-0.000166859
0.00154244
-0.000169038
0.00162741
-0.000170729
0.00171298
-0.000171936
0.00179892
-0.000172672
0.001885
-0.000172954
0.00197101
-0.000172804
0.00205674
-0.000172248
0.00214201
-0.000171316
0.00222665
-0.000170041
0.00231051
-0.00016846
0.00239345
-0.000166611
0.00247537
-0.000164537
0.00255616
-0.000162281
0.00263577
-0.000159892
0.00271416
-0.00015742
0.00279131
-0.000154919
0.00286723
-0.000152443
0.00294198
-0.000150062
0.00301561
-0.000147813
0.00308826
-0.000145825
0.00316003
-0.000144024
0.00323118
-0.000142771
0.00330171
-0.000141519
0.00337227
-0.000141545
0.00344231
-0.000140483
0.00351359
-0.000142953
0.00358362
-0.000140408
0.0036575
-0.000148095
0.00372732
-0.000139936
0.00380559
-0.000156881
-0.000142916
0.000350093
-0.000155383
0.000398928
-0.000149875
0.000447989
-0.000150176
0.000497867
-0.000152513
0.000549127
-0.000156637
0.000602244
-0.0001622
0.00065754
-0.00016875
0.000715236
-0.000175979
0.000775472
-0.000183645
0.000838314
-0.000191529
0.000903767
-0.00019944
0.000971781
-0.000207213
0.00104226
-0.000214702
0.00111506
-0.000221788
0.00119002
-0.000228371
0.00126695
-0.000234371
0.00134563
-0.000239731
0.00142584
-0.000244407
0.00150736
-0.000248373
0.00158993
-0.000251615
0.00167334
-0.000254132
0.00175733
-0.000255932
0.0018417
-0.000257033
0.0019262
-0.000257461
0.00201065
-0.000257249
0.00209483
-0.000256434
0.00217858
-0.000255062
0.00226172
-0.000253182
0.00234411
-0.000250847
0.00242561
-0.000248117
0.00250613
-0.000245052
0.00258557
-0.000241719
0.00266386
-0.00023819
0.00274098
-0.000234537
0.00281691
-0.000230846
0.00289166
-0.000227191
0.00296527
-0.000223682
0.00303783
-0.000220369
0.00310945
-0.000217448
0.00318024
-0.000214808
0.00325046
-0.000212989
0.00332011
-0.000211169
0.00338983
-0.000211266
0.00345907
-0.000209729
0.0035296
-0.000213484
0.00359893
-0.000209736
0.00367212
-0.000221282
0.00374137
-0.000209183
0.00381898
-0.000234492
-0.000213852
0.000457007
-0.000203512
0.000503754
-0.000196621
0.000550968
-0.000197391
0.000599081
-0.000200626
0.000648607
-0.000206163
0.000700005
-0.000213598
0.000753582
-0.000222327
0.000809547
-0.000231944
0.000868027
-0.000242125
0.00092908
-0.000252581
0.000992697
-0.000263058
0.00105882
-0.000273336
0.00112735
-0.000283229
0.00119814
-0.00029258
0.00127103
-0.000301261
0.00134583
-0.00030917
0.00142233
-0.000316233
0.00150032
-0.000322395
0.00157957
-0.000327623
0.00165985
-0.0003319
0.00174094
-0.000335224
0.00182262
-0.000337606
0.00190466
-0.000339072
0.00198685
-0.000339654
0.002069
-0.000339395
0.00215091
-0.000338346
0.00223241
-0.000336566
0.00231335
-0.000334119
0.00239358
-0.000331076
0.00247297
-0.000327514
0.00255144
-0.000323515
0.00262888
-0.000319165
0.00270525
-0.000314559
0.00278051
-0.000309794
0.00285464
-0.00030498
0.00292767
-0.000300218
0.00299964
-0.000295653
0.00307062
-0.000291349
0.00314074
-0.000287568
0.00321009
-0.000284159
0.00327895
-0.000281845
0.00334731
-0.000279526
0.0034158
-0.00027976
0.00348389
-0.000277816
0.00355332
-0.000282914
0.00362163
-0.000278045
0.00369381
-0.000293468
0.00376222
-0.000277594
0.00383887
-0.000311139
-0.000284182
0.000596979
-0.000248377
0.000640843
-0.000240485
0.000685513
-0.000242061
0.000731218
-0.000246331
0.000778401
-0.000253346
0.000827493
-0.000262689
0.000878778
-0.000273612
0.000932442
-0.000285608
0.000988597
-0.000298279
0.00104728
-0.000311263
0.00110847
-0.000324247
0.0011721
-0.000336964
0.00123805
-0.000349185
0.0013062
-0.000360723
0.00137636
-0.000371426
0.00144836
-0.000381173
0.001522
-0.000389874
0.00159708
-0.000397468
0.00167337
-0.000403913
0.00175066
-0.000409191
0.00182874
-0.000413301
0.00190739
-0.000416257
0.0019864
-0.000418089
0.00206559
-0.000418838
0.00214475
-0.000418557
0.00222371
-0.000417309
0.00230231
-0.000415164
0.0023804
-0.000412203
0.00245783
-0.000408512
0.00253451
-0.000404187
0.00261032
-0.000399326
0.00268519
-0.000394039
0.00275907
-0.00038844
0.00283193
-0.00038265
0.00290375
-0.000376804
0.00297456
-0.000371028
0.00304441
-0.0003655
0.00311336
-0.0003603
0.00318154
-0.000355753
0.00324905
-0.000351668
0.00331616
-0.000348951
0.00338285
-0.00034622
0.00344977
-0.00034668
0.00351637
-0.000344415
0.00358439
-0.000350931
0.00365139
-0.000345048
0.00372229
-0.000364369
0.00378964
-0.000344938
0.00386505
-0.00038655
-0.000353744
0.000767817
-0.000289025
0.000807938
-0.000280607
0.000849314
-0.000283436
0.000891933
-0.000288951
0.000936146
-0.000297559
0.00098234
-0.000308884
0.00103076
-0.000322034
0.00108157
-0.000336413
0.00113484
-0.000351548
0.00119058
-0.000367012
0.00124877
-0.000382436
0.00130932
-0.000397509
0.0013721
-0.000411971
0.00143698
-0.000425606
0.0015038
-0.000438243
0.00157238
-0.000449746
0.00164252
-0.000460016
0.00171403
-0.00046898
0.00178671
-0.000476596
0.00186036
-0.000482843
0.00193478
-0.000487719
0.00200977
-0.000491243
0.00208513
-0.00049345
0.00216068
-0.000494388
0.00223624
-0.000494119
0.00231165
-0.000492716
0.00238675
-0.000490264
0.0024614
-0.000486855
0.00253548
-0.000482592
0.00260888
-0.000477586
0.00268151
-0.000471956
0.0027533
-0.000465828
0.0028242
-0.000459339
0.00289418
-0.00045263
0.00296324
-0.000445863
0.00303139
-0.000439185
0.0030987
-0.000432808
0.00316523
-0.000426826
0.0032311
-0.000421628
0.00329641
-0.000416978
0.00336143
-0.00041397
0.00342615
-0.000410935
0.00349119
-0.000411726
0.00355602
-0.000409246
0.00362236
-0.000417268
0.00368781
-0.000410502
0.00375719
-0.000433746
0.00382327
-0.000411021
0.00389722
-0.000460494
-0.000422403
0.00096681
-0.00032444
0.00100227
-0.000316066
0.00103955
-0.000320715
0.00107837
-0.000327776
0.00111898
-0.000338159
0.00116168
-0.000351589
0.00120668
-0.000367032
0.00125408
-0.000383811
0.00130392
-0.000401389
0.00135619
-0.00041928
0.00141082
-0.000437069
0.00146772
-0.000454409
0.00152676
-0.000471014
0.00158781
-0.000486649
0.00165069
-0.000501127
0.00171525
-0.000514302
0.0017813
-0.000526066
0.00184866
-0.000536343
0.00191715
-0.000545086
0.00198658
-0.000552271
0.00205676
-0.000557901
0.00212752
-0.000561997
0.00219866
-0.000564596
0.00227003
-0.000565755
0.00234145
-0.000565544
0.00241278
-0.000564045
0.00248387
-0.000561355
0.0025546
-0.00055758
0.00262484
-0.000552836
0.0026945
-0.000547249
0.0027635
-0.000540956
0.00283178
-0.000534101
0.00289928
-0.000526842
0.00296599
-0.000519339
0.00303191
-0.000511779
0.00309705
-0.000504328
0.00316148
-0.000497235
0.00322525
-0.000490602
0.00328851
-0.000484885
0.00335133
-0.000479799
0.00341399
-0.000476629
0.00347647
-0.000473413
0.0035394
-0.000474657
0.00360224
-0.000472082
0.00366668
-0.000481714
0.0037304
-0.000474217
0.00379806
-0.000501407
0.00386273
-0.000475697
0.00393503
-0.00053279
-0.000490062
0.00119073
-0.000353555
0.00122057
-0.000345909
0.00125292
-0.000353065
0.00128723
-0.000362081
0.00132358
-0.000374509
0.00136221
-0.000390224
0.00140324
-0.000408062
0.00144671
-0.000427277
0.0014926
-0.000447283
0.00154087
-0.000467546
0.00159142
-0.00048762
0.00164414
-0.000507132
0.00169891
-0.000525779
0.00175557
-0.000543313
0.00181398
-0.000559539
0.00187398
-0.000574304
0.00193541
-0.000587495
0.0019981
-0.000599032
0.00206188
-0.000608865
0.00212658
-0.000616972
0.00219203
-0.000623354
0.00225807
-0.000628034
0.00232453
-0.000631057
0.00239126
-0.000632482
0.0024581
-0.000632388
0.00252493
-0.000630867
0.00259159
-0.000628024
0.00265799
-0.000623978
0.00272402
-0.000618858
0.00278957
-0.000612806
0.00285459
-0.000605973
0.00291901
-0.000598521
0.00298279
-0.000590626
0.00304592
-0.000582469
0.0031084
-0.000574259
0.00317026
-0.000566182
0.00323154
-0.00055852
0.00329232
-0.000551382
0.00335273
-0.000545294
0.00341285
-0.000539915
0.00347294
-0.000536726
0.003533
-0.000533466
0.00359364
-0.000535298
0.00365432
-0.000532765
0.00371672
-0.000544118
0.00377857
-0.000536062
0.00384438
-0.000567221
0.00390756
-0.000538874
0.00397808
-0.000603313
-0.000556668
0.00143585
-0.000375272
0.00145912
-0.000369181
0.00148571
-0.000379651
0.00151478
-0.000391149
0.00154626
-0.000405988
0.00158027
-0.000424235
0.00161681
-0.000444606
0.00165584
-0.00046631
0.00169729
-0.000488733
0.00174106
-0.000511315
0.00178703
-0.00053359
0.00183508
-0.000555177
0.00188507
-0.000575766
0.00193686
-0.000595104
0.00199031
-0.000612993
0.00204528
-0.000629276
0.00210163
-0.000643838
0.00215919
-0.000656596
0.00221782
-0.000667499
0.00227738
-0.000676524
0.00233769
-0.000683672
0.00239863
-0.000688969
0.00246003
-0.000692461
0.00252176
-0.000694214
0.00258369
-0.000694313
0.00264568
-0.000692857
0.00270762
-0.000689961
0.00276939
-0.000685755
0.00283091
-0.00068038
0.0028921
-0.000673991
0.00295288
-0.000666755
0.00301321
-0.000658849
0.00307305
-0.000650467
0.00313239
-0.000641808
0.00319124
-0.000633105
0.00324961
-0.00062456
0.00330758
-0.000616489
0.00336521
-0.000609006
0.00342262
-0.000602705
0.00347989
-0.00059719
0.0035373
-0.000594137
0.00359482
-0.000590981
0.00365307
-0.000593546
0.00371151
-0.000591204
0.00377178
-0.000604397
0.00383169
-0.00059597
0.00389559
-0.000631116
0.00395723
-0.000600515
0.00402592
-0.000671999
-0.000622211
0.00169796
-0.000388515
0.00171376
-0.00038498
0.00173378
-0.000399681
0.00175695
-0.000414313
0.00178299
-0.000432028
0.00181187
-0.000453112
0.00184345
-0.000476186
0.00187758
-0.000500443
0.00191412
-0.000525275
0.00195293
-0.000550119
0.00199385
-0.000574514
0.00203676
-0.000598085
0.00208152
-0.000620524
0.00212799
-0.000641584
0.00217607
-0.000661065
0.0022256
-0.000678813
0.00227648
-0.00069471
0.00232855
-0.000708671
0.0023817
-0.000720644
0.00243578
-0.000730604
0.00249066
-0.000738552
0.0025462
-0.000744515
0.00260228
-0.000748543
0.00265877
-0.000750704
0.00271555
-0.000751088
0.00277249
-0.000749801
0.0028295
-0.000746968
0.00288647
-0.000742727
0.00294332
-0.000737232
0.00299998
-0.000730648
0.00305638
-0.000723158
0.00311249
-0.000714953
0.00316827
-0.000706244
0.0032237
-0.000697248
0.00327882
-0.000688218
0.00333363
-0.000679373
0.00338821
-0.000671063
0.0034426
-0.000663404
0.00349696
-0.000657059
0.00355134
-0.000651572
0.00360602
-0.000648818
0.00366096
-0.000645924
0.00371679
-0.000649376
0.00377297
-0.000647381
0.00383111
-0.000662538
0.00388908
-0.000653943
0.00395106
-0.00069309
0.00401119
-0.000660645
0.00407804
-0.000738848
-0.000686733
0.00197239
-0.000392304
0.00197993
-0.00039252
0.00199272
-0.000412467
0.00200941
-0.000430999
0.00202952
-0.000452142
0.00205282
-0.000476411
0.002079
-0.000502369
0.0021078
-0.000529246
0.002139
-0.000556475
0.00217241
-0.000583526
0.00220786
-0.000609966
0.00224522
-0.000635439
0.00228435
-0.000659655
0.00232514
-0.000682374
0.00236748
-0.000703404
0.00241125
-0.000722589
0.00245635
-0.000739812
0.00250267
-0.000754985
0.00255008
-0.000768053
0.00259847
-0.000778991
0.00264771
-0.000787799
0.0026977
-0.000794502
0.00274831
-0.000799151
0.00279942
-0.000801819
0.00285093
-0.000802598
0.00290273
-0.000801603
0.00295473
-0.000798964
0.00300683
-0.000794827
0.00305896
-0.000789358
0.00311104
-0.000782734
0.00316303
-0.000775148
0.00321489
-0.000766809
0.00326659
-0.000757943
0.00331812
-0.000748781
0.0033695
-0.000739599
0.00342076
-0.000730631
0.00347195
-0.000722258
0.00352315
-0.000714598
0.00357447
-0.000708385
0.003626
-0.000703096
0.00367799
-0.00070081
0.00373041
-0.000698342
0.00378387
-0.000702838
0.00383784
-0.000701354
0.00389391
-0.000718601
0.00395002
-0.000710053
0.00401013
-0.000753205
0.00406884
-0.000719353
0.00413392
-0.00080393
-0.000750326
0.00225411
-0.000385831
0.00225281
-0.000391222
0.00225784
-0.000417501
0.00226762
-0.000440781
0.00228144
-0.000465956
0.00229879
-0.000493763
0.0023192
-0.000522775
0.00234227
-0.000552325
0.00236773
-0.000581933
0.00239534
-0.000611139
0.00242494
-0.000639559
0.00245638
-0.000666876
0.00248954
-0.000692823
0.00252434
-0.000717173
0.00256068
-0.000739739
0.00259846
-0.000760368
0.00263758
-0.000778941
0.00267797
-0.000795368
0.0027195
-0.00080959
0.00276209
-0.000821578
0.00280562
-0.000831329
0.00284999
-0.00083887
0.00289509
-0.000844251
0.00294082
-0.000847545
0.00298707
-0.00084885
0.00303375
-0.000848283
0.00308077
-0.000845982
0.00312804
-0.000842103
0.0031755
-0.000836818
0.00322308
-0.000830316
0.00327074
-0.000822805
0.00331843
-0.000814503
0.00336614
-0.000805654
0.00341387
-0.000796505
0.00346162
-0.000787351
0.00350943
-0.00077844
0.00355736
-0.000770185
0.00360546
-0.000762703
0.00365388
-0.000756799
0.00370266
-0.000751882
0.00375209
-0.000750238
0.00380211
-0.000748362
0.00385333
-0.000754063
0.00390524
-0.000753259
0.00395936
-0.000772719
0.00401375
-0.000764442
0.00407214
-0.000811594
0.00412957
-0.000776789
0.00419302
-0.00086738
-0.000813132
0.00253772
-0.000368568
0.00252732
-0.000380821
0.00252435
-0.000414533
0.002527
-0.000443431
0.00253428
-0.000473228
0.00254539
-0.000504878
0.00255969
-0.00053707
0.00257668
-0.000569317
0.00259602
-0.000601279
0.00261748
-0.000632597
0.00264088
-0.00066296
0.0026661
-0.000692097
0.00269305
-0.000719767
0.00272163
-0.00074576
0.00275179
-0.000769893
0.00278344
-0.000792015
0.0028165
-0.000812002
0.00285089
-0.000829761
0.00288653
-0.000845229
0.00292332
-0.00085837
0.00296117
-0.00086918
0.00299999
-0.000877683
0.00303966
-0.000883926
0.0030801
-0.000887987
0.00312122
-0.000889964
0.00316291
-0.000889978
0.00320511
-0.000888175
0.00324772
-0.000884715
0.00329068
-0.000879782
0.00333394
-0.000873575
0.00337745
-0.000866311
0.00342117
-0.000858225
0.00346509
-0.000849573
0.0035092
-0.000840617
0.00355352
-0.000831672
0.00359808
-0.000823
0.00364294
-0.000815045
0.00368816
-0.000807922
0.00373387
-0.000802507
0.00378012
-0.000798136
0.00382719
-0.000797307
0.00387502
-0.000796189
0.00392421
-0.000803255
0.00397425
-0.000803302
0.00402663
-0.000825097
0.00407951
-0.000817322
0.00413638
-0.000868459
0.00419275
-0.000833168
0.00425477
-0.0009294
-0.000875348
0.00281769
-0.000340401
0.00279836
-0.000361495
0.00278749
-0.000403659
0.00278301
-0.00043895
0.00278362
-0.000473844
0.00278827
-0.000509523
0.00279614
-0.000544943
0.0028067
-0.000579879
0.0028196
-0.000614171
0.00283459
-0.000647586
0.00285152
-0.000679895
0.0028703
-0.000710876
0.00289085
-0.000740315
0.0029131
-0.000768015
0.00293701
-0.000793797
0.0029625
-0.000817506
0.00298951
-0.000839016
0.00301798
-0.000858225
0.00304781
-0.000875065
0.00307894
-0.000889496
0.00311126
-0.000901507
0.0031447
-0.000911119
0.00317915
-0.000918381
0.00321453
-0.000923366
0.00325075
-0.000926178
0.00328771
-0.000926941
0.00332534
-0.000925804
0.00336356
-0.000922937
0.00340231
-0.00091853
0.00344153
-0.000912793
0.00348117
-0.000905956
0.00352121
-0.000898264
0.00356163
-0.000889989
0.00360242
-0.000881408
0.0036436
-0.000872854
0.0036852
-0.000864602
0.00372729
-0.000857128
0.00376991
-0.000850541
0.00381319
-0.000845793
0.0038572
-0.000842142
0.00390219
-0.000842297
0.0039481
-0.000842106
0.00399554
-0.000850693
0.004044
-0.000851762
0.00409491
-0.000876006
0.00414656
-0.000868969
0.00420216
-0.000924063
0.00425776
-0.000888761
0.00431861
-0.000990258
-0.000937215
0.00308847
-0.000301825
0.003061
-0.000334027
0.00304271
-0.000385369
0.0030313
-0.000427543
0.00302522
-0.00046776
0.00302317
-0.000507472
0.0030243
-0.000546076
0.0030281
-0.000583676
0.00303423
-0.000620301
0.00304249
-0.000655848
0.00305276
-0.000690168
0.00306497
-0.000723083
0.00307906
-0.000754401
0.00309497
-0.000783932
0.00311268
-0.000811498
0.00313211
-0.00083694
0.00315322
-0.000860123
0.00317593
-0.00088094
0.00320018
-0.000899315
0.00322589
-0.000915201
0.00325296
-0.000928583
0.00328132
-0.000939477
0.00331087
-0.00094793
0.00334152
-0.000954016
0.00337318
-0.000957839
0.00340577
-0.000959528
0.0034392
-0.000959236
0.0034734
-0.00095714
0.00350831
-0.000953439
0.00354387
-0.000948352
0.00358003
-0.00094212
0.00361677
-0.000935002
0.00365407
-0.000927284
0.00369192
-0.000919257
0.00373034
-0.000911273
0.00376935
-0.000903618
0.00380903
-0.000896802
0.00384941
-0.000890926
0.00389064
-0.000887018
0.00393275
-0.000884255
0.00397601
-0.000885563
0.00402037
-0.00088646
0.0040664
-0.000896721
0.00411362
-0.000898983
0.00416339
-0.000925783
0.00421415
-0.000919723
0.00426882
-0.000978733
0.00432396
-0.0009439
0.00438398
-0.00105028
-0.000999024
0.00334495
-0.000254237
0.00331087
-0.000299946
0.00328599
-0.000360489
0.00326793
-0.000409483
0.00325504
-0.00045487
0.00324598
-0.000498417
0.00324002
-0.000540109
0.00323671
-0.000580372
0.00323581
-0.000619401
0.00323717
-0.000657201
0.00324068
-0.000693684
0.0032463
-0.000728704
0.00325398
-0.000762082
0.00326368
-0.000793632
0.00327536
-0.000823174
0.00328896
-0.000850542
0.00330443
-0.000875593
0.00332171
-0.000898214
0.00334071
-0.000918318
0.00336136
-0.000935852
0.00338357
-0.000950797
0.00340726
-0.000963165
0.00343233
-0.000972999
0.00345869
-0.000980374
0.00348624
-0.000985395
0.00351491
-0.000988195
0.00354461
-0.000988932
0.00357526
-0.000987789
0.00360679
-0.000984974
0.00363916
-0.000980717
0.00367231
-0.000975269
0.00370621
-0.000968902
0.00374084
-0.000961917
0.0037762
-0.000954618
0.00381231
-0.000947378
0.00384918
-0.000940493
0.00388689
-0.000934507
0.00392547
-0.000929511
0.00396506
-0.00092661
0.00400571
-0.000924898
0.00404766
-0.00092752
0.00409087
-0.000929664
0.00413589
-0.000941745
0.00418227
-0.000945367
0.00423131
-0.000974821
0.00428157
-0.000969978
0.00433568
-0.00103285
0.00439075
-0.000998966
0.00445032
-0.00110985
-0.00106111
0.00358302
-0.000200367
0.00354451
-0.000261442
0.00351389
-0.000329861
0.00348921
-0.000384809
0.00346916
-0.00043482
0.00345264
-0.000481893
0.00343915
-0.000526622
0.00342844
-0.000569661
0.00342033
-0.000611291
0.00341471
-0.000651582
0.00341151
-0.000690484
0.00341067
-0.000727868
0.00341215
-0.000763562
0.00341591
-0.000797383
0.00342188
-0.000829144
0.00343001
-0.000858676
0.00344024
-0.000885827
0.00345251
-0.000910476
0.00346672
-0.00093253
0.0034828
-0.000951929
0.00350065
-0.000968648
0.00352018
-0.000982694
0.00354129
-0.000994112
0.00356389
-0.00100297
0.00358788
-0.00100939
0.00361317
-0.00101349
0.00363968
-0.00101544
0.00366732
-0.00101543
0.00369603
-0.00101368
0.00372575
-0.00101043
0.00375642
-0.00100594
0.00378802
-0.0010005
0.00382052
-0.000994417
0.00385391
-0.000988014
0.00388822
-0.000981686
0.00392346
-0.000975735
0.0039597
-0.000970743
0.00399698
-0.000966788
0.00403542
-0.000965055
0.00407507
-0.000964551
0.00411619
-0.00096864
0.00415871
-0.000972184
0.00420319
-0.000986223
0.00424919
-0.000991368
0.00429794
-0.00102357
0.00434814
-0.00102018
0.00440213
-0.00108685
0.00445755
-0.00105439
0.0045171
-0.00116939
-0.00112383
0.00379965
-0.000144385
0.00375946
-0.000221254
0.00372353
-0.000293932
0.00369172
-0.000353003
0.00366377
-0.000406864
0.00363914
-0.000457263
0.00361771
-0.00050519
0.00359937
-0.000551322
0.003584
-0.000595925
0.00357151
-0.000639089
0.0035618
-0.000680777
0.0035548
-0.00072087
0.00355045
-0.000759206
0.00354867
-0.000795602
0.00354939
-0.000829871
0.00355256
-0.00086184
0.00355808
-0.000891352
0.00356588
-0.000918279
0.00357588
-0.000942522
0.00358796
-0.000964016
0.00360205
-0.000982732
0.00361803
-0.000998674
0.0036358
-0.00101188
0.00365526
-0.00102243
0.00367631
-0.00103043
0.00369884
-0.00103603
0.00372278
-0.00103938
0.00374803
-0.00104069
0.00377453
-0.00104018
0.0038022
-0.0010381
0.003831
-0.00103474
0.00386089
-0.00103039
0.00389184
-0.00102537
0.00392385
-0.00102002
0.00395693
-0.00101476
0.0039911
-0.00100991
0.00402642
-0.00100606
0.00406293
-0.0010033
0.00410076
-0.00100289
0.00413995
-0.00100374
0.00418076
-0.00100944
0.0042231
-0.00101453
0.00426754
-0.00103066
0.00431366
-0.00103749
0.0043626
-0.00107251
0.00441323
-0.00107081
0.00446758
-0.00114119
0.00452382
-0.00111063
0.00458381
-0.00122938
-0.0011876
0.00399503
-9.19845e-05
0.00395621
-0.000182435
0.00391387
-0.000251596
0.00387335
-0.000312476
0.00383619
-0.000369711
0.00380264
-0.000423708
0.00377284
-0.000475395
0.00374675
-0.00052523
0.00372422