/*--------------------------------*- C++ -*----------------------------------*\
  =========                 |
  \\      /  F ield         | OpenFOAM: The Open Source CFD Toolbox
   \\    /   O peration     | Website:  https://openfoam.org
    \\  /    A nd           | Version:  7
     \\/     M anipulation  |
\*---------------------------------------------------------------------------*/
FoamFile
{
    version     2.0;
    format      ascii;
    class       volVectorField;
    location    "15";
    object      U;
}
// * * * * * * * * * * * * * * * * * * * * * * * * * * * * * * * * * * * * * //

dimensions      [0 1 -1 0 0 0 0];

internalField   nonuniform List<vector> 
5650
(
(-0.0338705 0.00076578 2.94744e-22)
(-0.0355555 0.000164303 -2.08461e-21)
(-0.0348318 -0.000502267 -1.05669e-20)
(-0.0314749 -0.00121194 -2.1501e-20)
(-0.0253402 -0.0019415 5.7763e-21)
(-0.0163733 -0.00265755 7.95924e-21)
(-0.00469356 -0.0033003 6.60063e-21)
(0.00918917 -0.00377926 1.08873e-20)
(0.025092 -0.00397417 3.59994e-21)
(-0.0326122 0.00224631 -8.79474e-21)
(-0.0338064 0.000449931 -1.35043e-20)
(-0.032538 -0.00153956 1.62879e-20)
(-0.0285854 -0.00365659 4.4108e-20)
(-0.0218061 -0.00583211 -5.97442e-20)
(-0.0121452 -0.00796702 1.20927e-21)
(0.000275237 -0.00988297 -1.03804e-20)
(0.014921 -0.0113088 -3.65165e-21)
(0.0318245 -0.0118719 4.0705e-21)
(-0.0300837 0.003575 -4.66087e-20)
(-0.0302984 0.000607837 -3.0518e-20)
(-0.0279431 -0.00267396 8.44395e-20)
(-0.0228023 -0.00616243 -3.36713e-20)
(-0.014738 -0.00974452 6.3726e-20)
(-0.00369459 -0.0132581 -5.56458e-20)
(0.0102007 -0.01641 -2.06432e-20)
(0.0263612 -0.0187497 -7.85575e-20)
(0.0452543 -0.0196157 1.10454e-20)
(-0.0250118 0.000556891 7.74038e-20)
(-0.0210325 -0.00396637 -9.73569e-20)
(-0.0141176 -0.00876654 -1.02881e-19)
(-0.0041361 -0.0136897 9.85145e-20)
(0.00896709 -0.0185133 -9.16241e-20)
(0.0250579 -0.0228389 4.90941e-20)
(0.0434619 -0.0260385 -2.91382e-20)
(0.0653094 -0.0270965 -1.26367e-20)
(-0.0179167 0.000222078 -1.13372e-19)
(-0.0117841 -0.00547182 1.39229e-19)
(-0.00251919 -0.0115001 -1.3259e-19)
(0.0099991 -0.0176716 -1.00049e-19)
(0.0258222 -0.0237095 5.16431e-21)
(0.0448073 -0.0291198 1.11652e-19)
(0.0661493 -0.0331038 -2.61767e-20)
(0.0918765 -0.0341966 1.45595e-20)
(-0.00897344 -0.00046292 1.135e-19)
(-0.000168385 -0.00723694 9.17026e-20)
(0.0120092 -0.014386 3.79312e-20)
(0.0276657 -0.0216859 1.11197e-19)
(0.046845 -0.0288145 3.16882e-20)
(0.069394 -0.0351913 -1.34077e-19)
(0.0943211 -0.0398644 2.29056e-19)
(0.124796 -0.040787 -1.22267e-20)
(0.00186811 -0.00155309 -1.55728e-19)
(0.0138517 -0.00929733 -9.35928e-20)
(0.0294871 -0.0174365 7.7015e-20)
(0.0488603 -0.0257181 -4.551e-20)
(0.0720004 -0.033783 -6.50349e-20)
(0.0987433 -0.0409785 -1.02068e-19)
(0.127843 -0.0462262 -2.20191e-19)
(0.163854 -0.0467253 2.11291e-19)
(0.0146677 -0.00308921 -6.84868e-20)
(0.0303203 -0.0116748 3.18757e-20)
(0.049937 -0.0206501 2.08894e-19)
(0.073576 -0.0297396 -1.05052e-19)
(0.101241 -0.0385561 2.49765e-19)
(0.132757 -0.04639 2.48881e-19)
(0.166542 -0.0520802 1.74867e-19)
(0.208774 -0.0518561 -1.78067e-19)
(0.0294945 -0.00509505 -1.82639e-19)
(0.0492873 -0.0143743 -1.48018e-19)
(0.0733824 -0.0240092 -9.55534e-20)
(0.1018 -0.0337057 -6.26861e-20)
(0.134506 -0.0430584 9.76655e-20)
(0.171307 -0.0513168 -1.32114e-19)
(0.210202 -0.0573006 -6.0608e-20)
(0.2592 -0.0560112 3.19588e-20)
(0.0464254 -0.00757456 3.86142e-19)
(0.0708073 -0.0173815 1.93085e-19)
(0.0998455 -0.027477 -1.50125e-19)
(0.13351 -0.0375535 5.33984e-21)
(0.171709 -0.0471968 7.48109e-20)
(0.214228 -0.0556314 8.84166e-20)
(0.258557 -0.0617443 -2.98042e-19)
(0.314691 -0.0590137 3.32744e-19)
(0.0949365 -0.0206594 -2.77069e-19)
(0.129344 -0.0309955 2.35155e-19)
(0.16867 -0.0411999 2.9126e-20)
(0.212741 -0.0508599 -3.07474e-19)
(0.261309 -0.0591882 8.60802e-21)
(0.311276 -0.0652509 4.08458e-20)
(0.374697 -0.0606822 -4.14789e-19)
(0.121729 -0.0241468 -1.76199e-21)
(0.161886 -0.0344831 1.61964e-19)
(0.207222 -0.044541 2.5063e-19)
(0.257457 -0.053918 -1.83418e-19)
(0.312283 -0.0618275 -4.00711e-20)
(0.367964 -0.0676449 -1.01641e-19)
(0.438556 -0.0608387 2.46515e-19)
(0.151234 -0.0277561 -3.4082e-19)
(0.197463 -0.0378338 2.31073e-19)
(0.249081 -0.0474517 -4.43745e-20)
(0.305666 -0.0562256 3.86189e-19)
(0.366817 -0.0633799 6.08939e-20)
(0.428143 -0.0687397 -2.31581e-19)
(0.50548 -0.0593182 1.35038e-19)
(0.183483 -0.0313727 5.29268e-19)
(0.236044 -0.0409175 -2.57667e-19)
(0.294125 -0.0497875 -1.40817e-19)
(0.357127 -0.057625 7.4945e-20)
(0.424504 -0.0636748 -1.77131e-19)
(0.491257 -0.0683436 1.07915e-20)
(0.574554 -0.0559812 -1.93586e-19)
(0.277564 -0.043581 4.45107e-19)
(0.342184 -0.0513882 -2.79039e-19)
(0.411534 -0.0579519 -7.32852e-21)
(0.484856 -0.0625518 -1.50625e-20)
(0.556667 -0.0662701 3.69683e-19)
(0.644748 -0.0507354 -8.74476e-20)
(0.321918 -0.045652 -3.28594e-19)
(0.393031 -0.0520825 4.35912e-19)
(0.468511 -0.0570438 1.06148e-19)
(0.547303 -0.0598736 4.4726e-19)
(0.623659 -0.0623501 2.1954e-19)
(0.714939 -0.0435625 3.27234e-20)
(0.368946 -0.046944 9.91373e-20)
(0.446375 -0.0516962 1.49813e-19)
(0.527607 -0.0547492 -4.552e-20)
(0.611197 -0.0555391 -3.90058e-19)
(0.691446 -0.0564258 -6.49212e-20)
(0.783906 -0.0344891 3.19002e-19)
(0.501853 -0.0500614 -2.14494e-19)
(0.588293 -0.0509435 -3.24387e-20)
(0.675833 -0.0494972 2.92895e-21)
(0.759182 -0.0483 2.1557e-20)
(0.850273 -0.0234693 -3.84977e-19)
(0.559024 -0.0470291 1.1109e-19)
(0.649974 -0.0455507 -2.69858e-19)
(0.740516 -0.0417673 3.10562e-19)
(0.826096 -0.0377462 -7.57127e-20)
(0.912696 -0.0107442 5.46692e-20)
(0.711978 -0.0385601 1.3998e-19)
(0.804571 -0.0324636 -7.06777e-19)
(0.891731 -0.0249074 -9.3386e-20)
(0.971244 0.00124228 1.74863e-19)
(0.773529 -0.0300103 -1.4193e-19)
(0.867119 -0.0218111 2.36818e-21)
(0.955284 -0.0109764 3.67925e-19)
(1.03004 0.00774984 -2.36957e-19)
(0.926961 -0.0100838 -5.1386e-19)
(1.01362 0.00211468 -2.50896e-19)
(1.08443 0.0111317 1.99136e-19)
(1.06607 0.0155295 4.54812e-19)
(1.13173 0.0198502 1.11344e-19)
(1.11271 0.0296255 2.25453e-19)
(1.1721 0.0319736 3.0825e-20)
(1.20616 0.0457689 -5.25408e-19)
(1.20616 -0.0457689 -5.27099e-20)
(1.11271 -0.0296255 -3.83445e-19)
(1.1721 -0.0319736 1.08896e-20)
(0.98324 -0.00277863 5.58787e-19)
(1.06607 -0.0155295 3.13537e-19)
(1.13173 -0.0198502 1.5621e-19)
(0.926961 0.0100838 -3.51181e-19)
(1.01362 -0.00211467 -3.55934e-19)
(1.08443 -0.0111317 3.97477e-19)
(0.773529 0.0300103 3.94399e-19)
(0.867119 0.0218111 1.74181e-19)
(0.955284 0.0109765 9.1664e-20)
(1.03004 -0.00774983 -9.33932e-20)
(0.711978 0.0385601 1.39831e-19)
(0.804571 0.0324636 -5.3575e-19)
(0.891731 0.0249074 -3.65371e-19)
(0.971244 -0.00124227 1.31672e-19)
(0.559024 0.0470291 -3.53254e-19)
(0.649974 0.0455507 -2.04511e-19)
(0.740516 0.0417673 4.18156e-19)
(0.826096 0.0377462 -8.67184e-20)
(0.912696 0.0107442 7.62247e-20)
(0.501853 0.0500614 -2.25341e-19)
(0.588293 0.0509435 -4.76043e-20)
(0.675833 0.0494972 -3.78181e-21)
(0.759182 0.0483001 1.49056e-19)
(0.850273 0.0234693 -4.4026e-19)
(0.368946 0.0469441 -3.56291e-19)
(0.446375 0.0516962 2.83776e-20)
(0.527607 0.0547492 -6.63196e-20)
(0.611197 0.0555391 -2.62108e-19)
(0.691446 0.0564258 -3.28118e-19)
(0.783906 0.0344891 3.00314e-19)
(0.321918 0.045652 -1.21968e-19)
(0.393031 0.0520825 4.07014e-19)
(0.468511 0.0570438 5.71472e-20)
(0.547303 0.0598736 4.04369e-19)
(0.623659 0.0623501 3.06192e-19)
(0.714939 0.0435625 1.33398e-19)
(0.277564 0.043581 2.64323e-19)
(0.342184 0.0513882 -2.18248e-19)
(0.411534 0.057952 -2.49055e-19)
(0.484856 0.0625519 1.91327e-19)
(0.556667 0.0662701 2.65435e-19)
(0.644748 0.0507354 1.63243e-20)
(0.183483 0.0313727 2.77476e-19)
(0.236044 0.0409175 -3.21159e-19)
(0.294125 0.0497875 1.63294e-19)
(0.357127 0.057625 -4.21524e-20)
(0.424504 0.0636748 -4.21772e-19)
(0.491257 0.0683436 2.24539e-19)
(0.574554 0.0559812 -2.94802e-19)
(0.151234 0.0277561 -3.96801e-19)
(0.197463 0.0378339 4.79107e-20)
(0.249081 0.0474517 -4.59474e-20)
(0.305666 0.0562257 5.72124e-19)
(0.366817 0.0633799 1.09172e-19)
(0.428143 0.0687397 -4.22768e-19)
(0.50548 0.0593182 1.31776e-19)
(0.121729 0.0241468 1.42388e-19)
(0.161886 0.0344831 7.37673e-21)
(0.207222 0.044541 2.15945e-19)
(0.257457 0.053918 -1.54581e-19)
(0.312283 0.0618275 -2.41558e-19)
(0.367964 0.0676449 4.854e-21)
(0.438556 0.0608387 3.10964e-19)
(0.0949365 0.0206594 -1.85023e-19)
(0.129344 0.0309955 3.36234e-19)
(0.16867 0.0411999 -2.43633e-19)
(0.212741 0.0508599 -2.63459e-19)
(0.261309 0.0591882 7.80422e-20)
(0.311276 0.0652509 -5.40909e-20)
(0.374697 0.0606822 -4.01927e-19)
(0.0464254 0.00757457 3.4102e-20)
(0.0708073 0.0173815 5.34461e-20)
(0.0998455 0.027477 -2.23833e-19)
(0.13351 0.0375535 1.38553e-19)
(0.171709 0.0471969 8.52104e-20)
(0.214228 0.0556314 4.82298e-20)
(0.258557 0.0617443 -1.33907e-19)
(0.314691 0.0590137 9.53458e-20)
(0.0294945 0.00509506 -1.24223e-19)
(0.0492873 0.0143743 -3.82726e-20)
(0.0733824 0.0240092 -8.76077e-20)
(0.1018 0.0337057 -1.54263e-19)
(0.134506 0.0430584 -9.80485e-21)
(0.171307 0.0513168 -1.48866e-19)
(0.210202 0.0573006 6.9019e-20)
(0.2592 0.0560112 -1.47235e-20)
(0.0146677 0.00308922 9.47413e-20)
(0.0303203 0.0116748 -7.5338e-20)
(0.049937 0.0206501 1.36694e-19)
(0.073576 0.0297396 6.69142e-20)
(0.101241 0.0385561 9.77788e-20)
(0.132757 0.04639 2.73159e-19)
(0.166542 0.0520802 1.95427e-19)
(0.208774 0.0518561 -2.09949e-19)
(0.00186811 0.00155309 -1.17639e-19)
(0.0138517 0.00929733 -1.185e-19)
(0.0294871 0.0174365 4.13007e-20)
(0.0488603 0.0257181 4.05279e-20)
(0.0720004 0.033783 -2.02889e-19)
(0.0987433 0.0409785 -7.61575e-20)
(0.127843 0.0462262 -1.90741e-19)
(0.163854 0.0467253 1.5865e-19)
(-0.00897344 0.000462926 1.69336e-19)
(-0.000168381 0.00723694 3.70573e-20)
(0.0120092 0.014386 1.28452e-19)
(0.0276657 0.0216859 7.71691e-20)
(0.046845 0.0288145 6.06411e-20)
(0.069394 0.0351913 -1.06658e-19)
(0.0943211 0.0398644 2.1675e-19)
(0.124796 0.040787 -2.84479e-20)
(-0.0179167 -0.000222073 -1.44486e-19)
(-0.0117841 0.00547183 1.51138e-19)
(-0.00251919 0.0115001 -1.03397e-19)
(0.0099991 0.0176717 -1.94714e-19)
(0.0258222 0.0237095 4.51555e-20)
(0.0448073 0.0291198 1.42639e-19)
(0.0661493 0.0331038 1.87455e-20)
(0.0918765 0.0341967 -3.78142e-20)
(-0.0250118 -0.000556886 4.79741e-20)
(-0.0210325 0.00396637 -1.07295e-19)
(-0.0141176 0.00876655 -7.2018e-20)
(-0.0041361 0.0136897 4.9428e-20)
(0.00896709 0.0185134 -3.04775e-20)
(0.0250579 0.0228389 2.47406e-21)
(0.0434619 0.0260385 5.76159e-21)
(0.0653094 0.0270965 -6.58387e-20)
(-0.0300837 -0.00357499 9.05005e-20)
(-0.0302984 -0.000607832 -1.00207e-20)
(-0.0279431 0.00267396 4.93205e-20)
(-0.0228023 0.00616243 1.90618e-20)
(-0.014738 0.00974453 1.53047e-20)
(-0.00369459 0.0132581 -2.00057e-20)
(0.0102007 0.01641 -7.28287e-20)
(0.0263612 0.0187498 -3.02865e-20)
(0.0452543 0.0196157 -9.00941e-21)
(-0.0326122 -0.0022463 -1.7571e-20)
(-0.0338064 -0.000449926 9.1259e-21)
(-0.032538 0.00153956 -1.65394e-20)
(-0.0285854 0.00365659 5.86782e-20)
(-0.0218061 0.00583212 -7.3446e-20)
(-0.0121452 0.00796703 1.46922e-20)
(0.000275239 0.00988298 -8.55062e-21)
(0.014921 0.0113088 5.53704e-21)
(0.0318245 0.0118719 -1.18836e-20)
(-0.0338705 -0.000765776 4.17354e-22)
(-0.0355555 -0.000164298 -2.49298e-21)
(-0.0348318 0.000502273 -1.12218e-20)
(-0.0314749 0.00121195 -1.44926e-20)
(-0.0253402 0.0019415 5.3033e-21)
(-0.0163733 0.00265756 2.29311e-21)
(-0.00469356 0.00330031 8.29883e-21)
(0.00918917 0.00377928 1.28804e-20)
(0.025092 0.00397419 1.63116e-21)
(0.0368716 -0.00343302 3.23677e-21)
(0.0455714 -0.00321881 2.22277e-21)
(0.0541818 -0.00313252 -1.48921e-21)
(0.0629441 -0.00309316 4.94996e-22)
(0.0719046 -0.0030893 -2.35106e-21)
(0.0811651 -0.00311035 -1.03953e-21)
(0.0908003 -0.00314601 1.25045e-21)
(0.100858 -0.0031896 -3.25925e-21)
(0.111371 -0.0032362 6.29908e-21)
(0.122363 -0.00328184 -2.77366e-21)
(0.133843 -0.00332337 -2.00147e-23)
(0.145811 -0.00335835 -7.59169e-22)
(0.158258 -0.00338494 2.87412e-21)
(0.171169 -0.00340186 -1.0408e-22)
(0.18452 -0.00340832 -2.43804e-21)
(0.198284 -0.00340395 1.2245e-21)
(0.212427 -0.00338874 -6.49697e-22)
(0.226915 -0.00336296 1.10475e-23)
(0.241709 -0.00332712 3.57778e-22)
(0.256773 -0.00328186 7.12923e-22)
(0.272065 -0.003228 -6.02394e-23)
(0.287547 -0.00316639 -5.70002e-22)
(0.30318 -0.00309796 7.32247e-22)
(0.318927 -0.00302366 -1.20672e-21)
(0.334753 -0.00294445 1.24249e-21)
(0.350622 -0.00286127 -2.53639e-22)
(0.366505 -0.00277505 -8.30516e-23)
(0.382373 -0.00268668 1.82876e-22)
(0.398199 -0.00259703 -7.1913e-22)
(0.413961 -0.0025069 5.75129e-22)
(0.429641 -0.00241708 -9.11303e-23)
(0.445223 -0.0023283 1.59378e-22)
(0.460695 -0.00224125 -8.80491e-23)
(0.476054 -0.0021566 -1.46555e-22)
(0.491292 -0.00207498 -5.39585e-23)
(0.506421 -0.00199692 2.67793e-22)
(0.521434 -0.00192313 7.91684e-24)
(0.536377 -0.00185377 -2.1101e-23)
(0.551207 -0.00179007 -9.80091e-23)
(0.566073 -0.0017309 9.13158e-23)
(0.580779 -0.00167972 -1.09717e-22)
(0.595791 -0.00163056 2.77899e-23)
(0.610377 -0.00159569 -4.33835e-23)
(0.625986 -0.00155184 -2.33471e-23)
(0.640192 -0.00154193 2.29644e-24)
(0.657401 -0.00148762 3.47245e-25)
(0.670145 -0.00152362 -1.90407e-23)
(0.691295 -0.00142498 3.15089e-25)
(0.699472 -0.00153429 -6.36903e-24)
(0.729632 -0.00139592 -9.30568e-24)
(0.043802 -0.010251 -5.36322e-21)
(0.0522911 -0.0096208 -7.25488e-21)
(0.0607763 -0.00936678 -6.00676e-21)
(0.0694553 -0.00925015 6.3808e-21)
(0.0783326 -0.00923947 1.01257e-20)
(0.0875123 -0.00930324 -1.87559e-21)
(0.0970693 -0.00941066 -5.16943e-21)
(0.107049 -0.00954173 7.41831e-21)
(0.117483 -0.00968167 -8.36119e-21)
(0.128394 -0.00981859 4.86716e-21)
(0.139789 -0.00994305 -5.79837e-21)
(0.151669 -0.0100477 2.72619e-21)
(0.164023 -0.0101272 2.53322e-21)
(0.176835 -0.0101777 -1.26384e-21)
(0.190082 -0.0101967 2.48322e-21)
(0.203735 -0.0101834 -5.0429e-21)
(0.217763 -0.0101377 3.91412e-21)
(0.232131 -0.0100603 2.91885e-22)
(0.2468 -0.00995288 2.69864e-22)
(0.261734 -0.00981735 -3.06478e-21)
(0.276894 -0.00965609 -1.84734e-23)
(0.29224 -0.00947171 -1.0929e-22)
(0.307735 -0.00926698 -6.7411e-22)
(0.323343 -0.00904473 2.91771e-21)
(0.339028 -0.00880781 -6.42943e-23)
(0.354756 -0.00855905 -1.08428e-21)
(0.370498 -0.00830123 6.90909e-22)
(0.386224 -0.008037 4.38635e-22)
(0.401911 -0.00776893 -9.19146e-23)
(0.417534 -0.00749946 -2.06901e-22)
(0.433077 -0.00723093 7.83914e-23)
(0.448524 -0.00696552 2.75304e-22)
(0.463864 -0.00670532 1.87837e-22)
(0.479092 -0.00645227 -5.09524e-22)
(0.494203 -0.0062083 5.634e-22)
(0.509207 -0.00597498 -2.17776e-22)
(0.524098 -0.00575443 -2.59453e-22)
(0.538922 -0.00554716 -2.80374e-22)
(0.553635 -0.00535679 1.11293e-22)
(0.568388 -0.00517999 2.45e-22)
(0.582982 -0.00502714 -1.48237e-22)
(0.597885 -0.00488024 1.38662e-22)
(0.612364 -0.00477622 1.24508e-23)
(0.627867 -0.00464518 9.81702e-23)
(0.641972 -0.0046159 -5.85787e-24)
(0.659074 -0.00445351 2.03769e-23)
(0.671727 -0.00456163 2.82255e-23)
(0.692755 -0.0042667 -3.16483e-24)
(0.700869 -0.00459386 -2.9385e-23)
(0.730862 -0.00418064 -4.3326e-23)
(0.0576126 -0.0169232 2.81924e-20)
(0.0656817 -0.0159139 -3.59538e-21)
(0.0739123 -0.0155071 -5.36684e-21)
(0.0824208 -0.015318 -1.31453e-20)
(0.0911291 -0.0153034 -4.65609e-21)
(0.100145 -0.015412 1.73412e-21)
(0.109544 -0.0155927 -1.60922e-20)
(0.119367 -0.0158122 2.95943e-20)
(0.129642 -0.016046 -2.46699e-20)
(0.14039 -0.0162743 6.06154e-21)
(0.151616 -0.0164813 1.30827e-21)
(0.163317 -0.016655 5.20064e-21)
(0.175484 -0.0167865 1.39735e-21)
(0.188099 -0.0168695 -1.29211e-20)
(0.201136 -0.0169004 1.90567e-21)
(0.21457 -0.0168776 6.98279e-21)
(0.228367 -0.0168009 -7.36282e-21)
(0.242494 -0.016672 3.35101e-21)
(0.256915 -0.0164934 1.97401e-22)
(0.271591 -0.0162683 -3.09195e-21)
(0.286486 -0.0160007 6.59042e-21)
(0.301562 -0.015695 -1.79453e-21)
(0.316783 -0.0153557 -1.20463e-21)
(0.332113 -0.0149874 1.09112e-21)
(0.347518 -0.014595 4.49368e-22)
(0.362966 -0.014183 -2.00238e-21)
(0.378426 -0.0137561 2.22774e-21)
(0.393873 -0.0133187 -9.4087e-22)
(0.409282 -0.0128749 8.57644e-22)
(0.42463 -0.0124289 -1.16323e-21)
(0.439901 -0.0119845 -7.2782e-22)
(0.455081 -0.0115452 -4.89982e-22)
(0.470157 -0.0111147 6.03633e-22)
(0.485127 -0.0106959 2.31274e-22)
(0.499985 -0.0102923 3.54969e-23)
(0.514742 -0.00990623 -4.29094e-22)
(0.52939 -0.00954137 3.59567e-22)
(0.543978 -0.00919853 4.22518e-22)
(0.55846 -0.00888371 -3.00832e-22)
(0.572987 -0.00859132 -4.76869e-23)
(0.587361 -0.00833873 1.55648e-22)
(0.602047 -0.00809587 -1.13169e-23)
(0.616316 -0.0079243 -2.30745e-22)
(0.631607 -0.00770761 -9.56653e-23)
(0.645512 -0.00766017 4.07351e-23)
(0.662399 -0.00739133 1.6393e-23)
(0.674871 -0.00757187 -6.2953e-23)
(0.69566 -0.00708353 1.20509e-23)
(0.703648 -0.00762622 -4.72332e-24)
(0.73331 -0.00694386 -3.1907e-23)
(0.0782014 -0.0233471 -3.71498e-20)
(0.0856449 -0.0220189 1.68091e-20)
(0.0934835 -0.0214857 -2.7314e-20)
(0.101727 -0.0212334 1.69392e-20)
(0.110176 -0.0212209 2.46834e-20)
(0.118942 -0.0213788 -1.83525e-20)
(0.1281 -0.0216357 -4.3193e-21)
(0.137684 -0.0219457 1.04325e-20)
(0.147719 -0.0222745 -1.9132e-20)
(0.15822 -0.0225943 1.50423e-20)
(0.16919 -0.0228833 1.71663e-21)
(0.180624 -0.023125 -4.5054e-21)
(0.192508 -0.0233071 -4.50474e-22)
(0.204824 -0.0234214 2.43684e-21)
(0.217548 -0.023463 1.36783e-21)
(0.230652 -0.0234296 -5.77943e-22)
(0.244104 -0.0233218 3.2429e-21)
(0.257871 -0.0231415 -1.38424e-21)
(0.271918 -0.0228924 2.33228e-22)
(0.28621 -0.0225791 -8.50555e-22)
(0.300711 -0.0222071 5.62068e-21)
(0.315385 -0.0217825 -1.00142e-20)
(0.330198 -0.0213115 5.96357e-21)
(0.345115 -0.0208006 -2.47858e-21)
(0.360104 -0.0202563 4.5802e-21)
(0.375135 -0.0196852 -5.89736e-21)
(0.39018 -0.0190934 4.70022e-21)
(0.405212 -0.0184872 -2.14222e-21)
(0.420208 -0.0178723 8.6793e-22)
(0.43515 -0.0172543 -7.0875e-22)
(0.450018 -0.0166386 7.96827e-22)
(0.464801 -0.0160301 -8.734e-22)
(0.479489 -0.0154337 7.66627e-22)
(0.494076 -0.0148538 4.6261e-22)
(0.508559 -0.0142948 -3.34036e-22)
(0.52295 -0.0137603 -5.50062e-23)
(0.537241 -0.0132551 -2.07318e-22)
(0.551479 -0.0127806 2.48596e-22)
(0.565619 -0.0123449 3.89575e-22)
(0.579813 -0.0119403 9.19326e-26)
(0.59386 -0.0115912 -1.08116e-23)
(0.608225 -0.0112553 -1.66517e-22)
(0.622182 -0.0110188 -3.58998e-22)
(0.63716 -0.010719 9.78876e-23)
(0.650769 -0.0106554 1.81824e-23)
(0.667338 -0.0102828 -8.68488e-23)
(0.679544 -0.0105362 -4.4077e-23)
(0.699976 -0.00985924 -4.57024e-24)
(0.707779 -0.0106136 -9.64381e-24)
(0.736949 -0.0096715 1.75454e-22)
(0.105412 -0.0294122 -2.08871e-20)
(0.11203 -0.0278483 -2.94839e-20)
(0.119329 -0.0272279 6.85068e-20)
(0.127204 -0.0269281 -1.41896e-20)
(0.135295 -0.0269283 9.76311e-21)
(0.143719 -0.0271432 5.04636e-21)
(0.152551 -0.0274817 -3.61133e-20)
(0.161813 -0.0278857 3.85416e-20)
(0.171523 -0.0283114 -1.33007e-20)
(0.181692 -0.0287233 2.51322e-21)
(0.192317 -0.0290939 -2.81221e-20)
(0.203391 -0.0294022 1.62008e-20)
(0.214896 -0.0296334 -9.58114e-21)
(0.226813 -0.0297772 -9.52462e-21)
(0.239117 -0.029828 8.22829e-21)
(0.25178 -0.0297833 -2.68092e-21)
(0.264772 -0.029644 4.63763e-21)
(0.27806 -0.0294129 5.8343e-21)
(0.291613 -0.0290946 -1.25533e-20)
(0.305396 -0.0286953 8.73617e-21)
(0.319376 -0.0282218 -1.7256e-21)
(0.33352 -0.0276819 4.75242e-21)
(0.347794 -0.0270834 -2.30446e-21)
(0.362168 -0.0264346 -1.60143e-21)
(0.376611 -0.0257438 -3.06269e-21)
(0.391095 -0.025019 1.87278e-21)
(0.405593 -0.0242683 1.22263e-21)
(0.420082 -0.0234994 -2.41389e-21)
(0.434539 -0.0227196 -2.76028e-23)
(0.448947 -0.0219361 8.50061e-22)
(0.463288 -0.0211555 -3.36378e-22)
(0.477553 -0.0203843 2.2028e-21)
(0.49173 -0.0196283 4.32139e-22)
(0.505818 -0.0188934 -1.07811e-21)
(0.519812 -0.0181851 1.45278e-21)
(0.533724 -0.0175079 -6.6109e-22)
(0.547546 -0.016868 -9.81153e-22)
(0.561327 -0.016267 1.43033e-22)
(0.575021 -0.0157155 -3.37753e-22)
(0.588777 -0.0152034 2.7153e-23)
(0.602398 -0.014762 -5.69526e-22)
(0.616343 -0.014337 4.36661e-22)
(0.629892 -0.0140394 3.72521e-22)
(0.644461 -0.0136599 2.92477e-22)
(0.657682 -0.0135829 -7.13373e-23)
(0.673836 -0.0131101 1.5439e-22)
(0.685692 -0.013437 1.10966e-22)
(0.705657 -0.0125781 -9.91945e-25)
(0.713219 -0.0135388 4.02312e-23)
(0.741743 -0.0123498 -2.8177e-22)
(0.13903 -0.0349982 1.81363e-20)
(0.144631 -0.0333034 -1.5076e-21)
(0.151232 -0.0326502 -3.21903e-20)
(0.158625 -0.0323272 5.99797e-20)
(0.166253 -0.032357 -5.82055e-20)
(0.174239 -0.0326415 2.73043e-20)
(0.182653 -0.0330702 -1.1583e-21)
(0.191505 -0.0335739 -1.1686e-20)
(0.200804 -0.0340998 -1.65182e-20)
(0.210552 -0.034605 1.60038e-20)
(0.220742 -0.0350568 -3.57321e-21)
(0.23136 -0.0354306 6.76594e-21)
(0.242388 -0.035709 2.32217e-20)
(0.253803 -0.0358807 -2.02937e-20)
(0.26558 -0.0359394 2.6026e-20)
(0.277691 -0.0358828 -3.29063e-21)
(0.290109 -0.0357123 -2.90306e-20)
(0.302803 -0.0354315 2.68689e-20)
(0.315742 -0.0350463 -9.51385e-21)
(0.328895 -0.0345641 8.97578e-21)
(0.342231 -0.0339932 -1.30756e-20)
(0.355721 -0.0333428 7.49965e-21)
(0.369333 -0.0326225 -1.36761e-20)
(0.383039 -0.0318421 9.36333e-21)
(0.396812 -0.0310115 -2.08668e-23)
(0.410625 -0.0301405 1.31426e-21)
(0.424454 -0.0292385 -5.08e-21)
(0.438278 -0.0283147 4.11409e-21)
(0.452076 -0.0273781 -2.99966e-21)
(0.465831 -0.0264372 -2.21494e-21)
(0.47953 -0.0254999 2.34697e-21)
(0.493162 -0.0245738 -9.83525e-22)
(0.506718 -0.0236663 1.24841e-21)
(0.520196 -0.0227841 1.63403e-22)
(0.533592 -0.021934 -4.07481e-22)
(0.546921 -0.0211214 -6.81991e-22)
(0.560172 -0.0203538 1.85523e-21)
(0.573395 -0.0196329 -5.25979e-22)
(0.586545 -0.0189719 -8.79737e-22)
(0.599768 -0.018358 3.5841e-22)
(0.612869 -0.01783 -5.35118e-22)
(0.626303 -0.0173208 2.49498e-22)
(0.639354 -0.0169666 4.02045e-22)
(0.653423 -0.0165117 -4.01884e-22)
(0.666172 -0.0164247 1.06421e-22)
(0.681817 -0.0158566 3.59817e-23)
(0.693247 -0.0162577 -1.85516e-23)
(0.712641 -0.015225 -3.26651e-25)
(0.719909 -0.0163855 -1.44699e-22)
(0.747643 -0.0149656 3.3925e-23)
(0.178774 -0.0399741 -6.07322e-20)
(0.183181 -0.0382748 -9.26404e-21)
(0.188918 -0.0376598 -2.42639e-20)
(0.195704 -0.0373489 4.18366e-20)
(0.202759 -0.0374342 -3.6312e-20)
(0.210203 -0.0378072 4.43025e-20)
(0.218106 -0.0383391 -3.24147e-20)
(0.226459 -0.0389507 3.03205e-20)
(0.235257 -0.0395816 -3.59217e-20)
(0.244493 -0.0401822 2.68878e-20)
(0.254153 -0.0407152 1.04533e-20)
(0.264218 -0.0411533 -5.27967e-21)
(0.274667 -0.0414775 -1.7262e-21)
(0.285475 -0.0416757 2.03141e-21)
(0.296617 -0.0417415 5.90386e-21)
(0.308067 -0.0416731 -2.55298e-20)
(0.319798 -0.0414725 2.40035e-20)
(0.331781 -0.0411443 -1.53566e-20)
(0.343991 -0.0406955 1.65539e-20)
(0.356397 -0.0401348 -1.46406e-20)
(0.368973 -0.039472 1.47434e-20)
(0.38169 -0.0387176 -8.19811e-21)
(0.394523 -0.0378827 -1.37034e-23)
(0.407445 -0.0369787 7.05749e-21)
(0.420432 -0.0360168 -4.31394e-21)
(0.433459 -0.0350084 -4.45667e-21)
(0.446506 -0.0339643 3.02395e-22)
(0.459552 -0.0328953 5.38183e-21)
(0.47258 -0.0318116 -6.35606e-22)
(0.485575 -0.0307229 3.29932e-21)
(0.498525 -0.0296386 -2.40093e-21)
(0.511419 -0.0285674 1.3399e-21)
(0.524251 -0.0275179 2.90474e-22)
(0.537019 -0.0264976 -1.73486e-21)
(0.549721 -0.0255147 1.34563e-21)
(0.562369 -0.0245753 -8.2171e-22)
(0.574957 -0.0236883 -9.13865e-22)
(0.587531 -0.0228553 1.50324e-21)
(0.600047 -0.0220922 -7.2523e-22)
(0.61265 -0.0213835 1.0498e-21)
(0.625146 -0.0207751 -1.03715e-21)
(0.637983 -0.0201878 -3.18905e-22)
(0.650455 -0.0197824 -5.1702e-23)
(0.663941 -0.0192573 3.64417e-22)
(0.67614 -0.0191643 -1.39736e-22)
(0.691192 -0.0185063 -4.60484e-23)
(0.702128 -0.0189823 1.95194e-23)
(0.720853 -0.0177859 5.01677e-23)
(0.727781 -0.0191382 2.40201e-23)
(0.754589 -0.0175062 2.04827e-22)
(0.224292 -0.0441996 4.51362e-21)
(0.227345 -0.0426425 -1.78694e-20)
(0.232049 -0.0421552 -2.88402e-20)
(0.238097 -0.0419055 1.851e-20)
(0.244465 -0.0420828 9.82955e-21)
(0.251264 -0.042571 -5.47025e-20)
(0.25856 -0.043224 3.82672e-20)
(0.266319 -0.0439551 -2.03781e-20)
(0.274523 -0.0446974 2.72009e-20)
(0.283153 -0.0453964 -1.05301e-20)
(0.292185 -0.0460114 2.32206e-21)
(0.301597 -0.0465134 3.58826e-21)
(0.311362 -0.0468825 -3.38055e-21)
(0.321457 -0.0471066 1.86482e-21)
(0.331856 -0.0471796 -8.82882e-21)
(0.342534 -0.0471005 2.40403e-20)
(0.353467 -0.0468721 -1.48985e-20)
(0.364629 -0.0465002 8.28288e-21)
(0.375997 -0.0459928 -1.61283e-20)
(0.387545 -0.0453597 1.19218e-20)
(0.399249 -0.0446121 -9.7019e-21)
(0.411085 -0.0437618 3.25047e-22)
(0.423029 -0.0428213 -2.86981e-21)
(0.435059 -0.0418032 1.30305e-20)
(0.447153 -0.0407203 -1.07854e-20)
(0.45929 -0.0395851 7.01222e-21)
(0.471451 -0.03841 -2.52853e-21)
(0.483619 -0.0372069 -1.36182e-21)
(0.495779 -0.0359873 -1.7527e-21)
(0.507916 -0.0347622 5.49872e-21)
(0.520021 -0.0335421 -1.50603e-21)
(0.532084 -0.0323368 1.00464e-22)
(0.544101 -0.031156 1.2683e-22)
(0.55607 -0.0300083 -1.2183e-23)
(0.56799 -0.0289028 -2.12198e-21)
(0.579874 -0.0278464 1.21627e-21)
(0.591714 -0.0268493 -9.11459e-22)
(0.603558 -0.0259132 -7.81036e-22)
(0.615361 -0.0250564 1.86001e-21)
(0.627267 -0.0242606 -9.51105e-22)
(0.639081 -0.0235793 8.16123e-22)
(0.651247 -0.0229205 -3.14078e-22)
(0.663067 -0.0224701 -1.27426e-22)
(0.675897 -0.0218806 -4.23437e-22)
(0.687477 -0.0217861 1.0638e-22)
(0.701859 -0.0210446 -1.19453e-23)
(0.712238 -0.0215962 -9.50165e-23)
(0.730207 -0.0202475 -7.44572e-24)
(0.736753 -0.0217826 1.81222e-22)
(0.762513 -0.0199598 8.14179e-23)
(0.275152 -0.0475312 -1.27403e-20)
(0.276712 -0.0462806 9.03776e-22)
(0.280222 -0.046029 -5.46473e-20)
(0.285404 -0.0459052 -4.76283e-20)
(0.29097 -0.0462234 4.08079e-20)
(0.297022 -0.0468623 3.65508e-20)
(0.303612 -0.0476598 9.28132e-20)
(0.310684 -0.0485251 -5.35075e-20)
(0.318198 -0.0493873 -1.45844e-20)
(0.326123 -0.0501887 2.17957e-20)
(0.334426 -0.0508872 -4.12292e-20)
(0.34308 -0.0514533 -2.64277e-21)
(0.352056 -0.0518675 3.87013e-20)
(0.361329 -0.0521181 6.17492e-22)
(0.370876 -0.0522 -1.18751e-21)
(0.380673 -0.0521132 -2.89254e-20)
(0.3907 -0.0518612 1.01666e-20)
(0.400933 -0.051451 -7.56832e-21)
(0.411353 -0.0508918 -3.13945e-21)
(0.421938 -0.0501944 5.12302e-21)
(0.432668 -0.0493711 -6.25815e-21)
(0.443521 -0.0484349 5.76972e-21)
(0.454478 -0.0473995 -5.35605e-21)
(0.465518 -0.0462788 7.60748e-21)
(0.476625 -0.0450867 -2.25101e-21)
(0.487778 -0.0438371 -2.61258e-21)
(0.498963 -0.0425435 2.23964e-21)
(0.510164 -0.041219 5.03662e-23)
(0.521368 -0.0398762 2.23193e-21)
(0.532562 -0.0385274 4.98289e-22)
(0.543739 -0.037184 3.43094e-21)
(0.554891 -0.035857 -6.25087e-21)
(0.566014 -0.034557 2.74269e-21)
(0.577108 -0.0332935 3.54384e-21)
(0.58817 -0.0320767 -2.17971e-21)
(0.599216 -0.0309142 -1.00955e-21)
(0.610238 -0.0298174 -1.46206e-21)
(0.621282 -0.028788 1.46443e-21)
(0.632303 -0.0278467 -1.21194e-21)
(0.643444 -0.0269725 8.64341e-22)
(0.654512 -0.0262264 -7.66201e-22)
(0.665942 -0.0255034 1.08339e-21)
(0.677047 -0.0250147 2.03345e-22)
(0.689155 -0.0243674 -1.97322e-22)
(0.700056 -0.0242764 -6.5031e-23)
(0.713701 -0.0234584 -3.03652e-22)
(0.723471 -0.0240864 -1.27695e-23)
(0.740605 -0.0225979 -1.07179e-23)
(0.746736 -0.0243057 -1.54815e-22)
(0.771338 -0.0223154 -1.48408e-22)
(0.33083 -0.0498273 -1.09866e-19)
(0.330793 -0.0490623 7.41152e-20)
(0.332969 -0.0491719 -1.31355e-19)
(0.337162 -0.0492556 1.07713e-19)
(0.341823 -0.049777 3.35747e-20)
(0.347029 -0.0506107 -2.6425e-20)
(0.352821 -0.0515813 -5.58548e-20)
(0.359109 -0.0525984 1.8068e-20)
(0.365833 -0.0535905 6.58557e-20)
(0.37295 -0.0544995 -1.45716e-20)
(0.380419 -0.0552841 6.7867e-21)
(0.388207 -0.055916 -7.12678e-20)
(0.396285 -0.0563769 5.74549e-20)
(0.404628 -0.0566567 2.96909e-20)
(0.413214 -0.0567512 -5.70756e-20)
(0.422025 -0.0566616 1.50013e-20)
(0.431041 -0.0563926 -1.85672e-20)
(0.440244 -0.0559521 2.43093e-20)
(0.449617 -0.0553501 -9.71588e-21)
(0.459143 -0.0545987 1.64536e-21)
(0.468804 -0.0537109 9.54431e-21)
(0.478583 -0.0527009 -1.14602e-20)
(0.488464 -0.0515834 3.86918e-21)
(0.498431 -0.0503733 -4.54047e-21)
(0.508466 -0.0490857 8.39175e-21)
(0.518556 -0.0477355 -1.58192e-21)
(0.528687 -0.0463375 -9.05574e-21)
(0.538845 -0.0449056 -2.59616e-22)
(0.54902 -0.0434538 3.00677e-21)
(0.559201 -0.0419952 -7.06515e-21)
(0.569381 -0.0405422 3.52246e-22)
(0.579554 -0.0391069 1.2419e-21)
(0.589717 -0.0377007 2.59028e-21)
(0.599871 -0.0363341 2.12936e-21)
(0.610015 -0.0350183 -2.19791e-21)
(0.620162 -0.0337613 -2.26045e-21)
(0.630306 -0.032576 3.24896e-21)
(0.640492 -0.0314637 -4.25865e-22)
(0.650675 -0.0304479 1.92321e-21)
(0.660996 -0.0295046 -1.85039e-21)
(0.671262 -0.0287022 -4.42622e-22)
(0.681901 -0.027923 2.87236e-22)
(0.692239 -0.0274034 9.58251e-23)
(0.703572 -0.0267051 1.6298e-22)
(0.713744 -0.0266226 -3.19052e-22)
(0.726595 -0.0257361 1.01901e-22)
(0.735712 -0.0264408 4.31275e-22)
(0.751943 -0.0248266 1.28953e-23)
(0.757631 -0.0266961 8.65364e-23)
(0.78098 -0.024563 -3.29252e-22)
(0.390712 -0.0509529 -4.2839e-20)
(0.389016 -0.0508662 -7.18567e-20)
(0.389754 -0.0514789 1.81112e-19)
(0.392858 -0.051869 -9.65093e-20)
(0.396525 -0.0526688 6.83905e-20)
(0.400798 -0.0537486 -9.51402e-20)
(0.4057 -0.0549248 4.64169e-20)
(0.411108 -0.0561131 -3.28705e-20)
(0.416941 -0.0572462 4.30238e-20)
(0.423143 -0.0582691 -2.10057e-20)
(0.429667 -0.0591439 -3.74836e-20)
(0.436478 -0.059845 7.2468e-20)
(0.443547 -0.0603567 -2.799e-20)
(0.450851 -0.0606706 -4.73728e-20)
(0.458372 -0.0607843 1.90736e-20)
(0.466094 -0.0606999 -1.91299e-22)
(0.474 -0.0604232 1.50555e-20)
(0.482079 -0.0599629 6.64799e-21)
(0.490314 -0.05933 -2.96607e-20)
(0.498694 -0.0585372 1.27254e-21)
(0.507205 -0.0575985 2.42437e-20)
(0.515832 -0.0565289 -1.91264e-20)
(0.524562 -0.0553439 3.64364e-21)
(0.533381 -0.0540596 7.38421e-21)
(0.542278 -0.0526918 3.77753e-21)
(0.551238 -0.0512566 -1.72726e-21)
(0.560251 -0.0497695 -5.12131e-21)
(0.569305 -0.0482458 1.59605e-21)
(0.578392 -0.0467001 5.1061e-21)
(0.587503 -0.0451465 -3.93138e-21)
(0.596631 -0.0435987 8.55852e-22)
(0.605772 -0.0420693 -5.96644e-22)
(0.614924 -0.0405708 2.57066e-22)
(0.624089 -0.0391145 6.11254e-22)
(0.633264 -0.0377125 4.3707e-22)
(0.642466 -0.0363733 -1.94054e-22)
(0.651685 -0.0351112 -1.34447e-21)
(0.660968 -0.0339272 3.02686e-21)
(0.670268 -0.0328474 -8.56906e-22)
(0.679724 -0.0318446 1.24999e-21)