/*--------------------------------*- C++ -*----------------------------------*\
  =========                 |
  \\      /  F ield         | OpenFOAM: The Open Source CFD Toolbox
   \\    /   O peration     | Website:  https://openfoam.org
    \\  /    A nd           | Version:  7
     \\/     M anipulation  |
\*---------------------------------------------------------------------------*/
FoamFile
{
    version     2.0;
    format      ascii;
    class       volScalarField;
    location    "150";
    object      p;
}
// * * * * * * * * * * * * * * * * * * * * * * * * * * * * * * * * * * * * * //

dimensions      [0 2 -2 0 0 0 0];

internalField   nonuniform List<scalar> 
31800
(
-0.376218
-0.377433
-0.378005
-0.378421
-0.378921
-0.37971
-0.380968
-0.382812
-0.385316
-0.388535
-0.392516
-0.397313
-0.402983
-0.409581
-0.417141
-0.425661
-0.435065
-0.445179
-0.455685
-0.466089
-0.475693
-0.483591
-0.488689
-0.48984
-0.485791
-0.372958
-0.374586
-0.375353
-0.375897
-0.376475
-0.377285
-0.378499
-0.380225
-0.382526
-0.385438
-0.388993
-0.39322
-0.398155
-0.403823
-0.410234
-0.417359
-0.42511
-0.433307
-0.441649
-0.449681
-0.456776
-0.462139
-0.464819
-0.463791
-0.458261
-0.369748
-0.371772
-0.372725
-0.373391
-0.374042
-0.374867
-0.376031
-0.377631
-0.379716
-0.382307
-0.385415
-0.389047
-0.393211
-0.397903
-0.403104
-0.408759
-0.414758
-0.420916
-0.426945
-0.432429
-0.436814
-0.439423
-0.439453
-0.436009
-0.428698
-0.366642
-0.369041
-0.370169
-0.370952
-0.371671
-0.372507
-0.373617
-0.375087
-0.376951
-0.379212
-0.381861
-0.384883
-0.388254
-0.391941
-0.395893
-0.400025
-0.404206
-0.40824
-0.41185
-0.414656
-0.416176
-0.415852
-0.413032
-0.406936
-0.397549
-0.363695
-0.366441
-0.367733
-0.368625
-0.369409
-0.370255
-0.37131
-0.372649
-0.374289
-0.376219
-0.378407
-0.380812
-0.383381
-0.386052
-0.388737
-0.391321
-0.39365
-0.395514
-0.396643
-0.396692
-0.395246
-0.391861
-0.386035
-0.377075
-0.365328
-0.360959
-0.36402
-0.365462
-0.366457
-0.367303
-0.368157
-0.369159
-0.370368
-0.371789
-0.373391
-0.375121
-0.376913
-0.378685
-0.380341
-0.381761
-0.382799
-0.383273
-0.382961
-0.381596
-0.378863
-0.374406
-0.367892
-0.358963
-0.346989
-0.332626
-0.35848
-0.361821
-0.363399
-0.36449
-0.365395
-0.366258
-0.367209
-0.368294
-0.369501
-0.370784
-0.372066
-0.373258
-0.374247
-0.374905
-0.375081
-0.374596
-0.373243
-0.370786
-0.366959
-0.361472
-0.354026
-0.344382
-0.332327
-0.317281
-0.300096
-0.356304
-0.359885
-0.361584
-0.362763
-0.363723
-0.364597
-0.365501
-0.366468
-0.367472
-0.368447
-0.369298
-0.369908
-0.370139
-0.369829
-0.368796
-0.366833
-0.363707
-0.359168
-0.352953
-0.344794
-0.334442
-0.32174
-0.306619
-0.288562
-0.268429
-0.354468
-0.358248
-0.360051
-0.361309
-0.362322
-0.363207
-0.364068
-0.364926
-0.365738
-0.366422
-0.366862
-0.366916
-0.36642
-0.365182
-0.36299
-0.359609
-0.354786
-0.348257
-0.339763
-0.32906
-0.315944
-0.300328
-0.282284
-0.261414
-0.238301
-0.353003
-0.356939
-0.358828
-0.360157
-0.361218
-0.362116
-0.36294
-0.363698
-0.364332
-0.364743
-0.364795
-0.364324
-0.363139
-0.361021
-0.35773
-0.353005
-0.346576
-0.338171
-0.327536
-0.314453
-0.298766
-0.280444
-0.259696
-0.236345
-0.210324
-0.351935
-0.35598
-0.357938
-0.359328
-0.360433
-0.361344
-0.362137
-0.362805
-0.363276
-0.363434
-0.363125
-0.362163
-0.360331
-0.357387
-0.353064
-0.347081
-0.339151
-0.328999
-0.31638
-0.301109
-0.283078
-0.262311
-0.239128
-0.213742
-0.185002
-0.35128
-0.355389
-0.357397
-0.358836
-0.359982
-0.360906
-0.361673
-0.36226
-0.362584
-0.362511
-0.361869
-0.360452
-0.358021
-0.354309
-0.349028
-0.341877
-0.332559
-0.320799
-0.306368
-0.289115
-0.268993
-0.246081
-0.220753
-0.193835
-0.162672
-0.351049
-0.355175
-0.357212
-0.35869
-0.359869
-0.360808
-0.361553
-0.362071
-0.362262
-0.36198
-0.361035
-0.359202
-0.35622
-0.351802
-0.345639
-0.337416
-0.326828
-0.313606
-0.297541
-0.278524
-0.256573
-0.231842
-0.204663
-0.176705
-0.142504
-0.351241
-0.355338
-0.357385
-0.358889
-0.360096
-0.361047
-0.361776
-0.362233
-0.362308
-0.361839
-0.360621
-0.358411
-0.354928
-0.349866
-0.342901
-0.333703
-0.321967
-0.30743
-0.289914
-0.269353
-0.245836
-0.219633
-0.190896
-0.162534
-0.125313
-0.351853
-0.355874
-0.35791
-0.359428
-0.360655
-0.361616
-0.362331
-0.362737
-0.36271
-0.362076
-0.360614
-0.358065
-0.354131
-0.348489
-0.340799
-0.330725
-0.317961
-0.302259
-0.283473
-0.26159
-0.23677
-0.209464
-0.179393
-0.151186
-0.112436
-0.352868
-0.35677
-0.358774
-0.360292
-0.36153
-0.362499
-0.363201
-0.363563
-0.363448
-0.362668
-0.360991
-0.358139
-0.353802
-0.34764
-0.339303
-0.328448
-0.314775
-0.298055
-0.278179
-0.255194
-0.229328
-0.20133
-0.170154
-0.142163
-0.103177
-0.354268
-0.358008
-0.359959
-0.361463
-0.362701
-0.363672
-0.364363
-0.364686
-0.364493
-0.363585
-0.361716
-0.358596
-0.353899
-0.347275
-0.338362
-0.326818
-0.312349
-0.294752
-0.273962
-0.250092
-0.223404
-0.194823
-0.163325
-0.135754
-0.0968732
-0.356025
-0.359563
-0.361441
-0.362914
-0.364141
-0.365107
-0.365783
-0.36607
-0.365808
-0.364786
-0.362746
-0.359386
-0.354369
-0.347331
-0.337908
-0.325757
-0.3106
-0.292262
-0.270725
-0.246173
-0.218908
-0.190103
-0.158418
-0.131718
-0.0932239
-0.358107
-0.361408
-0.363191
-0.364616
-0.365819
-0.366771
-0.367427
-0.367677
-0.367348
-0.366221
-0.364026
-0.360449
-0.355142
-0.347734
-0.337856
-0.325173
-0.309424
-0.290469
-0.26834
-0.24331
-0.215695
-0.186961
-0.15532
-0.129687
-0.0920626
-0.360478
-0.363509
-0.365178
-0.366537
-0.3677
-0.368624
-0.369252
-0.36946
-0.369065
-0.367837
-0.365496
-0.361717
-0.356143
-0.348397
-0.33811
-0.324958
-0.308702
-0.289245
-0.266673
-0.241349
-0.213605
-0.185167
-0.153884
-0.129306
-0.0931733
-0.3631
-0.365832
-0.367367
-0.368641
-0.369746
-0.370627
-0.371215
-0.371371
-0.370904
-0.369572
-0.367088
-0.363114
-0.357287
-0.349227
-0.338567
-0.324998
-0.308312
-0.288457
-0.265579
-0.240131
-0.212469
-0.184493
-0.153907
-0.130254
-0.096225
-0.365933
-0.368343
-0.369724
-0.370893
-0.371919
-0.372739
-0.373269
-0.37336
-0.372809
-0.371366
-0.368735
-0.364566
-0.358491
-0.35013
-0.339124
-0.325182
-0.308131
-0.287973
-0.264919
-0.239499
-0.212118
-0.184722
-0.155145
-0.132248
-0.100754
-0.368937
-0.371006
-0.372215
-0.373257
-0.374182
-0.374919
-0.375371
-0.375378
-0.374727
-0.373156
-0.370372
-0.365999
-0.359675
-0.351019
-0.339685
-0.325406
-0.30805
-0.287678
-0.264564
-0.239308
-0.212382
-0.185652
-0.157318
-0.135044
-0.106127
-0.372074
-0.37379
-0.374808
-0.3757
-0.3765
-0.377129
-0.377479
-0.377379
-0.376606
-0.374884
-0.371941
-0.367345
-0.360763
-0.351815
-0.340166
-0.325581
-0.307975
-0.287469
-0.264404
-0.23943
-0.213098
-0.187098
-0.160127
-0.138414
-0.112005
-0.375309
-0.376664
-0.377474
-0.378195
-0.378843
-0.379336
-0.379555
-0.379323
-0.378405
-0.376524
-0.373367
-0.368546
-0.361697
-0.352453
-0.3405
-0.325637
-0.307832
-0.287265
-0.264344
-0.23975
-0.214109
-0.188886
-0.163299
-0.142131
-0.118008
-0.378613
-0.379603
-0.38019
-0.380716
-0.381185
-0.381513
-0.381572
-0.381177
-0.380087
-0.378014
-0.37463
-0.369561
-0.362431
-0.352884
-0.340635
-0.32552
-0.307561
-0.286999
-0.264301
-0.240164
-0.215273
-0.190855
-0.166585
-0.145962
-0.123787
-0.381961
-0.382587
-0.382937
-0.383246
-0.383507
-0.383638
-0.383506
-0.382918
-0.381625
-0.379332
-0.375701
-0.370359
-0.362932
-0.353078
-0.340538
-0.325194
-0.307122
-0.286622
-0.264209
-0.240583
-0.216464
-0.192857
-0.169786
-0.149702
-0.12911
-0.385335
-0.385602
-0.385702
-0.385771
-0.385797
-0.385701
-0.385345
-0.384532
-0.383007
-0.380465
-0.376563
-0.370926
-0.363186
-0.353016
-0.34019
-0.324636
-0.306487
-0.286094
-0.264011
-0.240931
-0.21758
-0.194768
-0.172766
-0.153181
-0.133779
-0.388726
-0.38864
-0.388479
-0.388286
-0.38805
-0.387697
-0.387087
-0.386018
-0.38423
-0.381413
-0.377214
-0.371261
-0.363189
-0.352693
-0.339583
-0.323835
-0.305637
-0.285387
-0.263664
-0.241144
-0.218538
-0.196495
-0.175443
-0.156291
-0.137768
-0.39213
-0.3917
-0.391267
-0.390794
-0.390271
-0.389632
-0.388738
-0.387384
-0.385306
-0.382185
-0.377665
-0.371371
-0.362948
-0.352116
-0.338719
-0.322788
-0.304563
-0.28448
-0.263135
-0.241176
-0.21928
-0.197975
-0.177771
-0.159018
-0.141391
-0.395552
-0.394786
-0.394072
-0.393301
-0.392469
-0.391518
-0.390313
-0.388648
-0.386252
-0.382801
-0.377933
-0.371274
-0.362479
-0.351294
-0.337607
-0.321499
-0.303262
-0.283363
-0.262401
-0.240992
-0.219768
-0.199167
-0.179715
-0.16142
-0.144893
-0.399004
-0.397909
-0.396907
-0.395823
-0.394661
-0.393376
-0.391836
-0.389834
-0.387095
-0.383288
-0.378045
-0.370991
-0.361799
-0.350242
-0.336257
-0.319977
-0.301738
-0.282032
-0.26145
-0.240573
-0.219979
-0.20004
-0.181252
-0.163557
-0.147655
-0.402504
-0.401085
-0.399787
-0.398377
-0.396869
-0.395232
-0.393336
-0.390975
-0.387868
-0.383677
-0.378027
-0.370548
-0.360928
-0.348978
-0.334684
-0.318231
-0.299997
-0.280488
-0.26028
-0.239911
-0.219905
-0.200578
-0.182392
-0.165247
-0.149816
-0.406075
-0.404333
-0.402733
-0.400987
-0.39912
-0.397114
-0.394844
-0.392103
-0.388603
-0.383998
-0.377907
-0.369965
-0.359886
-0.347519
-0.332903
-0.316278
-0.298054
-0.278742
-0.258895
-0.239007
-0.219547
-0.200782
-0.183136
-0.166471
-0.151446
-0.409743
-0.407677
-0.405768
-0.403678
-0.401441
-0.399054
-0.396396
-0.393254
-0.389335
-0.384281
-0.377709
-0.369265
-0.358688
-0.345879
-0.330931
-0.314134
-0.295921
-0.276805
-0.257304
-0.237868
-0.218913
-0.20066
-0.183497
-0.167251
-0.152567
-0.413537
-0.41114
-0.408918
-0.406476
-0.403862
-0.401085
-0.398023
-0.39446
-0.390091
-0.384551
-0.377453
-0.368461
-0.35735
-0.344074
-0.328785
-0.311815
-0.293617
-0.274691
-0.25552
-0.236506
-0.218015
-0.200229
-0.183498
-0.167619
-0.153241
-0.417487
-0.414748
-0.412206
-0.409409
-0.406412
-0.403236
-0.399756
-0.395749
-0.390897
-0.384826
-0.377154
-0.367565
-0.355882
-0.342117
-0.326479
-0.309339
-0.291158
-0.272415
-0.253555
-0.234933
-0.216867
-0.199504
-0.183161
-0.16761
-0.153508
-0.421621
-0.418524
-0.415657
-0.412501
-0.409118
-0.405534
-0.401622
-0.397144
-0.39177
-0.385119
-0.376817
-0.366583
-0.354292
-0.34002
-0.32403
-0.306723
-0.288559
-0.269992
-0.251422
-0.233161
-0.215482
-0.198504
-0.18251
-0.167256
-0.153406
-0.425964
-0.422492
-0.419293
-0.415775
-0.412002
-0.408003
-0.40364
-0.39866
-0.39272
-0.385433
-0.376445
-0.365517
-0.352586
-0.337793
-0.321451
-0.303981
-0.285835
-0.267433
-0.249131
-0.231201
-0.213873
-0.197245
-0.181564
-0.166583
-0.152966
-0.430538
-0.42667
-0.423134
-0.419251
-0.415085
-0.41066
-0.405824
-0.400305
-0.393746
-0.385765
-0.376033
-0.364364
-0.350766
-0.335444
-0.318754
-0.301127
-0.282996
-0.264747
-0.246691
-0.229062
-0.212053
-0.195741
-0.180344
-0.165615
-0.152212
-0.435362
-0.431075
-0.427195
-0.422945
-0.418379
-0.413516
-0.408179
-0.402078
-0.394844
-0.386103
-0.375569
-0.363118
-0.348832
-0.332979
-0.315946
-0.298167
-0.28005
-0.26194
-0.244108
-0.226751
-0.210028
-0.194004
-0.178865
-0.16437
-0.151167
-0.440447
-0.435717
-0.431487
-0.426867
-0.421895
-0.416575
-0.410705
-0.40397
-0.395997
-0.386432
-0.37504
-0.361771
-0.346784
-0.330401
-0.313035
-0.295109
-0.277001
-0.259016
-0.241384
-0.224272
-0.207808
-0.192045
-0.17714
-0.162864
-0.149847
-0.445799
-0.440603
-0.436017
-0.431023
-0.425634
-0.419835
-0.413391
-0.405966
-0.397185
-0.386729
-0.374427
-0.360312
-0.344617
-0.327712
-0.310023
-0.291954
-0.273849
-0.255974
-0.238521
-0.221628
-0.205397
-0.189871
-0.17518
-0.161113
-0.148269
-0.451418
-0.445733
-0.440786
-0.435412
-0.429594
-0.423286
-0.41622
-0.408039
-0.398379
-0.386967
-0.37371
-0.358728
-0.342326
-0.32491
-0.306908
-0.2887
-0.270592
-0.252811
-0.235517
-0.218819
-0.202798
-0.187489
-0.172996
-0.159125
-0.146445
-0.457295
-0.451103
-0.44579
-0.440031
-0.433764
-0.426911
-0.419167
-0.410159
-0.399546
-0.387117
-0.372867
-0.357007
-0.339903
-0.32199
-0.303686
-0.285342
-0.267225
-0.249524
-0.232368
-0.215844
-0.200014
-0.184904
-0.170594
-0.156912
-0.144385
-0.463417
-0.456703
-0.45102
-0.444866
-0.438128
-0.430687
-0.4222
-0.412289
-0.400649
-0.387146
-0.371874
-0.355131
-0.337339
-0.318946
-0.300352
-0.281873
-0.26374
-0.246105
-0.229071
-0.212703
-0.197046
-0.182119
-0.167981
-0.15448
-0.1421
-0.469763
-0.462515
-0.456459
-0.449899
-0.442661
-0.434581
-0.42528
-0.414385
-0.401645
-0.38702
-0.370707
-0.353086
-0.334623
-0.315766
-0.296893
-0.278283
-0.260127
-0.242546
-0.225618
-0.209391
-0.193892
-0.179136
-0.16516
-0.151836
-0.139596
-0.476306
-0.468517
-0.462086
-0.455106
-0.447332
-0.438553
-0.42836
-0.4164
-0.402493
-0.386705
-0.369341
-0.350855
-0.33174
-0.312441
-0.2933
-0.27456
-0.256375
-0.238839
-0.222005
-0.205904
-0.190553
-0.175956
-0.162136
-0.148984
-0.13688
-0.48301
-0.474678
-0.467871
-0.460454
-0.452103
-0.442558
-0.431389
-0.418281
-0.403146
-0.386167
-0.367752
-0.348418
-0.328677
-0.308954
-0.289558
-0.27069
-0.252473
-0.234972
-0.218222
-0.202238
-0.187025
-0.172581
-0.158911
-0.145929
-0.133957
-0.489834
-0.480963
-0.473777
-0.465903
-0.456926
-0.446541
-0.43431
-0.419976
-0.40356
-0.385371
-0.365913
-0.345757
-0.325417
-0.305291
-0.28565
-0.26666
-0.248408
-0.230937
-0.214263
-0.198388
-0.183306
-0.169009
-0.155487
-0.142674
-0.130832
-0.496729
-0.487327
-0.479762
-0.471405
-0.461748
-0.450442
-0.437061
-0.421427
-0.403689
-0.384282
-0.363801
-0.342852
-0.321941
-0.301434
-0.281562
-0.262452
-0.244165
-0.226721
-0.210118
-0.194348
-0.179393
-0.16524
-0.151865
-0.139221
-0.127508
-0.50364
-0.49372
-0.485775
-0.476906
-0.466506
-0.454195
-0.439578
-0.42258
-0.403489
-0.382869
-0.36139
-0.339681
-0.31823
-0.297365
-0.277275
-0.258053
-0.239733
-0.222314
-0.205781
-0.190112
-0.175284
-0.161272
-0.148046
-0.135571
-0.123988
-0.510503
-0.500085
-0.491757
-0.482341
-0.471132
-0.45773
-0.441795
-0.423376
-0.402916
-0.381097
-0.358655
-0.336224
-0.314265
-0.293064
-0.272771
-0.253446
-0.235096
-0.217704
-0.201241
-0.185675
-0.170973
-0.157105
-0.144029
-0.131726
-0.120276
-0.51725
-0.506358
-0.497642
-0.487641
-0.475552
-0.460972
-0.443642
-0.423761
-0.401927
-0.378936
-0.35557
-0.332457
-0.310024
-0.288513
-0.268033
-0.248615
-0.230242
-0.212882
-0.196492
-0.181031
-0.166458
-0.152735
-0.139815
-0.127688
-0.116373
-0.523805
-0.512466
-0.503358
-0.49273
-0.479686
-0.463843
-0.445053
-0.423681
-0.400482
-0.376354
-0.352109
-0.328359
-0.305487
-0.283691
-0.263043
-0.243544
-0.225158
-0.207836
-0.191525
-0.176174
-0.161735
-0.148163
-0.135404
-0.123456
-0.112281
-0.530087
-0.518334
-0.508826
-0.497523
-0.483449
-0.466265
-0.445961
-0.423083
-0.398542
-0.373321
-0.348249
-0.323907
-0.300633
-0.27858
-0.257783
-0.238218
-0.21983
-0.202556
-0.186333
-0.171099
-0.156801
-0.143385
-0.130795
-0.119031
-0.108003
-0.53601
-0.523878
-0.513961
-0.501935
-0.486756
-0.468159
-0.446299
-0.421916
-0.396069
-0.369808
-0.343963
-0.319078
-0.29544
-0.273159
-0.252237
-0.232623
-0.214247
-0.197033
-0.180907
-0.165801
-0.151652
-0.1384
-0.125988
-0.114414
-0.103541
-0.541483
-0.52901
-0.518674
-0.505873
-0.489518
-0.469448
-0.446006
-0.420135
-0.393028
-0.365787
-0.339229
-0.31385
-0.289889
-0.267411
-0.246387
-0.226745
-0.208398
-0.191258
-0.175242
-0.160274
-0.146284
-0.133207
-0.120983
-0.109605
-0.0988969
-0.546412
-0.53364
-0.522871
-0.509245
-0.491647
-0.470054
-0.445022
-0.417693
-0.389385
-0.361231
-0.334021
-0.308202
-0.283959
-0.261317
-0.240219
-0.220571
-0.202272
-0.185222
-0.169331
-0.154514
-0.140696
-0.127804
-0.115779
-0.104605
-0.0940719
-0.550701
-0.537673
-0.526458
-0.511955
-0.493056
-0.469905
-0.44329
-0.414551
-0.385109
-0.356114
-0.328319
-0.302113
-0.277632
-0.254862
-0.233718
-0.214089
-0.195858
-0.178918
-0.163168
-0.148518
-0.134885
-0.12219
-0.110376
-0.0994149
-0.0890691
-0.554254
-0.541012
-0.529336
-0.513909
-0.493661
-0.468933
-0.44076
-0.41067
-0.380171
-0.350413
-0.322099
-0.295563
-0.27089
-0.24803
-0.226872
-0.207288
-0.18915
-0.17234
-0.156749
-0.142281
-0.128848
-0.116366
-0.104776
-0.0940365
-0.0838941
-0.556972
-0.543562
-0.53141
-0.515015
-0.493379
-0.467072
-0.437382
-0.406015
-0.374545
-0.344104
-0.315343
-0.288535
-0.263718
-0.240806
-0.219668
-0.200158
-0.182138
-0.165481
-0.15007
-0.135803
-0.122586
-0.11033
-0.0989772
-0.0884743
-0.0785559
-0.558758
-0.545226
-0.532583
-0.515183
-0.492136
-0.464264
-0.433115
-0.400555
-0.368205
-0.337168
-0.308032
-0.281012
-0.2561
-0.233179
-0.212096
-0.192691
-0.174817
-0.158337
-0.143127
-0.12908
-0.116096
-0.104081
-0.0929809
-0.0827313
-0.0730604
-0.55952
-0.54591
-0.532764
-0.514328
-0.489859
-0.460457
-0.427921
-0.394262
-0.36113
-0.329585
-0.300149
-0.272979
-0.248023
-0.225136
-0.204146
-0.184881
-0.167181
-0.150904
-0.135919
-0.122112
-0.109378
-0.0976206
-0.0867872
-0.0768039
-0.0673888
-0.559166
-0.545523
-0.531862
-0.51237
-0.486486
-0.455601
-0.421766
-0.387113
-0.353302
-0.321339
-0.291681
-0.264424
-0.239477
-0.21667
-0.195813
-0.176721
-0.159227
-0.143179
-0.128444
-0.114899
-0.102433
-0.0909497
-0.0803994
-0.0706836
-0.0614859
-0.557612
-0.543979
-0.529796
-0.509236
-0.481958
-0.449658
-0.414622
-0.379088
-0.344705
-0.312418
-0.282613
-0.255335
-0.230453
-0.207773
-0.18709
-0.168208
-0.150951
-0.135163
-0.120701
-0.107441
-0.0952627
-0.0840719
-0.0738233
-0.0643727
-0.0553314
-0.554776
-0.541197
-0.526488
-0.504861
-0.476226
-0.442592
-0.406468
-0.370171
-0.335326
-0.302809
-0.272938
-0.245705
-0.220944
-0.19844
-0.177974
-0.15934
-0.142353
-0.126852
-0.112691
-0.0997379
-0.0878708
-0.0769917
-0.0670604
-0.0578832
-0.0491241
-0.550586
-0.537103
-0.521868
-0.499186
-0.469249
-0.434377
-0.397285
-0.36035
-0.325155
-0.292505
-0.262648
-0.235526
-0.210944
-0.188667
-0.168462
-0.150116
-0.133431
-0.118249
-0.104416
-0.0917926
-0.0802627
-0.0697156
-0.0601134
-0.0512197
-0.0427951
-0.544976
-0.53163
-0.515876
-0.492163
-0.460992
-0.424992
-0.387063
-0.349617
-0.314187
-0.2815
-0.251738
-0.224797
-0.200452
-0.178452
-0.158554
-0.140533
-0.12419
-0.109357
-0.0958816
-0.0836145
-0.0724376
-0.0622446
-0.0529871
-0.0443965
-0.0363231
-0.537889
-0.52472
-0.508458
-0.483752
-0.45143
-0.414424
-0.375794
-0.337969
-0.30242
-0.269793
-0.240207
-0.213516
-0.189468
-0.167797
-0.14825
-0.130593
-0.114636
-0.100183
-0.0870889
-0.0752047
-0.0644022
-0.0545829
-0.0456876
-0.0374177
-0.0297054
-0.529277
-0.516324
-0.499574
-0.473923
-0.440547
-0.402666
-0.363477
-0.325407
-0.289854
-0.257384
-0.228056
-0.201683
-0.177993
-0.156705
-0.137556
-0.12031
-0.104766
-0.0907292
-0.0780453
-0.0665679
-0.0561631
-0.0467369
-0.0382213
-0.0302873
-0.0229481
-0.519103
-0.506402
-0.489189
-0.462655
-0.428334
-0.389718
-0.350117
-0.311936
-0.276494
-0.244279
-0.21529
-0.189305
-0.166032
-0.145183
-0.126479
-0.109685
-0.0945888
-0.0810005
-0.068757
-0.0577111
-0.0477269
-0.0387137
-0.0305948
-0.0230099
-0.0160588
-0.507337
-0.494926
-0.477282
-0.449938
-0.414791
-0.375588
-0.335723
-0.297566
-0.26235
-0.230484
-0.201915
-0.17639
-0.153598
-0.133236
-0.115026
-0.0987234
-0.0841137
-0.0710053
-0.0592314
-0.0486422
-0.0391013
-0.0305211
-0.0228151
-0.0155924
-0.0090454
-0.493962
-0.481877
-0.463841
-0.435769
-0.399927
-0.360288
-0.32031
-0.28231
-0.247432
-0.216011
-0.187944
-0.162947
-0.140694
-0.120874
-0.103204
-0.0874359
-0.0733498
-0.0607534
-0.0494775
-0.0393702
-0.0302948
-0.0221673
-0.0148901
-0.00804235
-0.00191619
-0.478971
-0.467246
-0.448864
-0.420157
-0.383757
-0.343838
-0.303897
-0.266186
-0.231758
-0.200877
-0.17339
-0.148989
-0.127336
-0.108111
-0.0910274
-0.0758336
-0.0623077
-0.0502552
-0.0395056
-0.0299049
-0.021317
-0.0136617
-0.00682863
-0.000368624
0.00532031
-0.462368
-0.451037
-0.43236
-0.403121
-0.366304
-0.326263
-0.28651
-0.249219
-0.215349
-0.185098
-0.158269
-0.134532
-0.113537
-0.0949591
-0.0785082
-0.0639295
-0.0509996
-0.0395226
-0.029327
-0.0202574
-0.0121786
-0.00501441
0.00135973
0.00741919
0.0126551
-0.444166
-0.433262
-0.414348
-0.384685
-0.3476
-0.307596
-0.268179
-0.231433
-0.198228
-0.168696
-0.142601
-0.119593
-0.0993151
-0.0814354
-0.065662
-0.0517382
-0.0394394
-0.0285688
-0.0189543
-0.0104397
-0.0028912
0.00376366
0.00966448
0.0153106
0.0200784
-0.42439
-0.413945
-0.394858
-0.364886
-0.327688
-0.287887
-0.248926
-0.212857
-0.180422
-0.151695
-0.126408
-0.104195
-0.0846898
-0.0675581
-0.0525061
-0.0392759
-0.0276421
-0.0174081
-0.00840116
-0.000464763
0.00653284
0.0126606
0.0180743
0.0232942
0.02758
-0.403076
-0.393119
-0.373924
-0.343765
-0.30662
-0.267192
-0.228776
-0.193522
-0.161961
-0.134124
-0.109717
-0.0883611
-0.0696831
-0.0533476
-0.0390593
-0.0265601
-0.0156246
-0.00605613
0.00231769
0.00965338
0.0160801
0.0216637
0.0265769
0.0313579
0.0351486
-0.380267
-0.370826
-0.351595
-0.321378
-0.284436
-0.245467
-0.207853
-0.173478
-0.142882
-0.116014
-0.0925564
-0.0721169
-0.0543192
-0.0388262
-0.0253424
-0.0136102
-0.0034045
0.00547039
0.0131865
0.0198998
0.0257362
0.0307595
0.0351595
0.0394885
0.0427719
-0.356015
-0.34712
-0.327937
-0.297811
-0.261146
-0.222841
-0.186136
-0.152764
-0.123221
-0.0974
-0.074957
-0.0554914
-0.0386242
-0.024018
-0.0113778
-0.000446703
0.00899888
0.0171536
0.0241886
0.0302586
0.0354861
0.0399336
0.0438083
0.0476715
0.0504364
-0.330377
-0.322067
-0.303028
-0.273143
-0.236793
-0.199358
-0.163683
-0.131424
-0.10302
-0.0783186
-0.0569527
-0.0385155
-0.0226266
-0.00894899
0.00281084
0.0129083
0.0215653
0.0289747
0.0353063
0.0407133
0.045314
0.0491708
0.0525081
0.0558904
0.0581267
-0.303423
-0.295742
-0.276923
-0.247233
-0.211642
-0.175094
-0.140554
-0.109509
-0.0823247
-0.0588098
-0.0385798
-0.0212223
-0.00635644
0.00635307
0.017198
0.0264314
0.0342732
0.0409139
0.0465215
0.0512467
0.0552035
0.0584556
0.0612431
0.0641261
0.0658214
-0.275226
-0.268227
-0.249655
-0.220369
-0.185618
-0.15011
-0.116809
-0.0870694
-0.0611808
-0.0389162
-0.0198769
-0.00364676
0.0101541
0.021859
0.0317569
0.0400983
0.0471001
0.0529505
0.057815
0.0618411
0.0651379
0.0677719
0.0699972
0.072358
0.073492
-0.245863
-0.239623
-0.221292
-0.192635
-0.158805
-0.124473
-0.0925123
-0.0641614
-0.039638
-0.0186827
-0.000884647
0.014174
0.0268714
0.0375379
0.0464595
0.0538832
0.0600227
0.0650631
0.0691674
0.0724783
0.0750998
0.0771038
0.0787566
0.0805702
0.0811201
-0.215404
-0.209983
-0.192041
-0.164081
-0.13129
-0.0982537
-0.0677285
-0.040843
-0.0177486
0.00184378
0.0183542
0.0322011
0.0437601
0.0533578
0.0612765
0.0677595
0.0730167
0.0772297
0.0805583
0.0831394
0.0850707
0.0864349
0.0875105
0.0887538
0.0887007
-0.183986
-0.179448
-0.161962
-0.134795
-0.10316
-0.0715276
-0.0425248
-0.0171747
0.00443318
0.0226141
0.0377952
0.0503943
0.0607835
0.0692852
0.0761775
0.0816995
0.0860568
0.0894276
0.0919674
0.0938049
0.0950322
0.0957511
0.0962488
0.0968767
0.0961424
-0.151853
-0.148
-0.131136
-0.104873
-0.0745031
-0.0443725
-0.0169711
0.00678091
0.026851
0.0435773
0.0573923
0.0687117
0.0779035
0.0852856
0.0911311
0.0956747
0.0991175
0.101634
0.103374
0.104456
0.10497
0.105048
0.104958
0.104827
0.103135
-0.118979
-0.115831
-0.099666
-0.0744119
-0.0454096
-0.0168691
0.00886068
0.0309593
0.0494467
0.0646809
0.0770977
0.0871101
0.095081
0.101323
0.106105
0.109656
0.112172
0.113824
0.114755
0.115075
0.114877
0.114331
0.113619
0.112459
0.10943
-0.0854664
-0.0830692
-0.0676614
-0.0435124
-0.0159718
0.0109
0.0348968
0.0552943
0.0721607
0.085871
0.0968628
0.105545
0.112276
0.117362
0.121066
0.123613
0.125193
0.125974
0.12609
0.125644
0.124746
0.123594
0.122201
0.119823
0.115715
-0.0514426
-0.0498272
-0.035234
-0.0122785
0.0137161
0.0388505
0.0610618
0.0797182
0.0949321
0.107092
0.116638
0.123972
0.129447
0.133364
0.13598
0.137515
0.138153
0.138057
0.137355
0.136145
0.134559
0.132794
0.130639
0.127114
0.124135
-0.0170325
-0.0162218
-0.00249841
0.0191842
0.0435584
0.0668968
0.0872794
0.104162
0.117699
0.128289
0.136371
0.142344
0.146553
0.149292
0.150814
0.15133
0.151024
0.150048
0.148528
0.146559
0.144286
0.141873
0.138953
0.134775
0.132481
0.0176392
0.0176276
0.0304296
0.0507687
0.0734586
0.0949525
0.113472
0.128557
0.140398
0.149405
0.156013
0.160615
0.16355
0.165108
0.165531
0.165028
0.163775
0.161922
0.159584
0.156862
0.153902
0.150823
0.147206
0.142588
0.140347
0.0524465
0.0515997
0.0634331
0.0823672
0.10332
0.122931
0.139561
0.152833
0.162966
0.170381
0.17551
0.178738
0.180398
0.180772
0.180097
0.178576
0.176379
0.17365
0.1705
0.16703
0.163382
0.159639
0.15539
0.150393
0.147923
0.0872625
0.0855716
0.0963948
0.113872
0.133044
0.150744
0.16547
0.176918
0.18534
0.191162
0.19481
0.196665
0.197052
0.196245
0.194477
0.191942
0.188806
0.185206
0.181251
0.17704
0.172706
0.168308
0.163468
0.158076
0.155237
0.12196
0.11942
0.129197
0.145175
0.162534
0.178305
0.191118
0.200742
0.207456
0.211688
0.213861
0.21435
0.21347
0.21149
0.208635
0.205094
0.201027
0.196565
0.191813
0.186867
0.181853
0.176814
0.171405
0.165598
0.162315
0.156412
0.153021
0.161723
0.176168
0.191694
0.205527
0.21643
0.224236
0.22925
0.231903
0.232612
0.231744
0.229609
0.226467
0.222536
0.218
0.213012
0.207699
0.20216
0.196489
0.190803
0.185136
0.179171
0.172932
0.169167
0.190491
0.186252
0.193857
0.206747
0.220427
0.232324
0.241326
0.24733
0.25066
0.251749
0.25101
0.248802
0.245426
0.241137
0.236145
0.230628
0.224733
0.218581
0.212268
0.205884
0.199537
0.193255
0.186744
0.180065
0.175794
0.224073
0.218991
0.225483
0.236805
0.24864
0.258612
0.265731
0.269953
0.271622
0.27117
0.269005
0.265476
0.26088
0.255462
0.249427
0.242946
0.23616
0.229186
0.222114
0.215029
0.208035
0.201151
0.194104
0.186982
0.182193
0.257034
0.251118
0.256489
0.266239
0.276238
0.284306
0.28957
0.292039
0.292076
0.290111
0.286545
0.281722
0.275929
0.269405
0.262348
0.254923
0.247266
0.239487
0.231673
0.223904
0.216277
0.208804
0.201234
0.193672
0.18836
0.289253
0.282515
0.286764
0.294948
0.303131
0.309325
0.312768
0.313521
0.31196
0.308516
0.303582
0.297494
0.290532
0.282928
0.274875
0.26653
0.258024
0.24946
0.240923
0.232488
0.224243
0.216198
0.208118
0.200123
0.194288
0.320609
0.313067
0.3162
0.322834
0.32923
0.333588
0.335253
0.334334
0.331217
0.326332
0.320066
0.312748
0.30465
0.295997
0.286975
0.277736
0.268405
0.259081
0.249842
0.24076
0.231917
0.223316
0.214742
0.206323
0.199968
0.350989
0.34266
0.34469
0.3498
0.354449
0.357019
0.356956
0.354413
0.349788
0.343507
0.335951
0.327441
0.318243
0.308575
0.298616
0.288513
0.278384
0.268325
0.258408
0.248701
0.239279
0.230142
0.221091
0.212261
0.205393
0.380278
0.371187
0.372134
0.375754
0.378703
0.379541
0.377809
0.373699
0.367618
0.359991
0.351191
0.341533
0.331274
0.320628
0.309767
0.298832
0.287936
0.277169
0.2666
0.256292
0.246313
0.23666
0.227152
0.217925
0.210555
0.408369
0.398541
0.398434
0.400606
0.401913
0.401082
0.397745
0.39213
0.384653
0.375734
0.365742
0.354982
0.343708
0.332124
0.320399
0.308667
0.297036
0.285591
0.274398
0.263515
0.253002
0.242855
0.232912
0.223303
0.215443
0.435158
0.424623
0.423494
0.424271
0.424002
0.421573
0.416703
0.409651
0.400841
0.390691
0.379561
0.367751
0.355508
0.343032
0.330483
0.317991
0.30566
0.29357
0.281783
0.270352
0.259331
0.248715
0.238357
0.228384
0.220051
0.460544
0.449335
0.447225
0.446667
0.444894
0.440948
0.434621
0.426207
0.416134
0.404816
0.392608
0.379803
0.366643
0.35332
0.339991
0.32678
0.313787
0.301086
0.288736
0.276786
0.265285
0.254225
0.243477
0.233158
0.22437
0.484435
0.472587
0.469543
0.467717
0.464522
0.459142
0.451444
0.441747
0.430484
0.418067
0.404844
0.391104
0.37708
0.362961
0.348898
0.335011
0.321394
0.308119
0.295241
0.282803
0.27085
0.259372
0.248258
0.237614
0.228393
0.50674
0.494293
0.490366
0.487348
0.482818
0.476098
0.467117
0.456221
0.443848
0.430404
0.416234
0.401619
0.386789
0.371927
0.357179
0.342661
0.328462
0.314652
0.30128
0.288387
0.276012
0.264146
0.252691
0.241742
0.232112
0.527377
0.514371
0.509621
0.505491
0.499723
0.491758
0.481591
0.469585
0.456184
0.44179
0.426743
0.411319
0.395743
0.380193
0.364812
0.349709
0.334973
0.320667
0.306838
0.293525
0.280759
0.268533
0.256765
0.245533
0.23552
0.546267
0.532747
0.527236
0.522084
0.515178
0.506073
0.494818
0.481797
0.467454
0.45219
0.43634
0.420176
0.403916
0.387737
0.371774
0.356138
0.340908
0.326148
0.311902
0.298203
0.28508
0.272525
0.26047
0.248979
0.238611
0.56334
0.549353
0.543149
0.537068
0.529131
0.518995
0.506756
0.492816
0.477623
0.461573
0.444996
0.428162
0.411285
0.394535
0.378048
0.361927
0.346252
0.331082
0.316457
0.302409
0.288963
0.276111
0.263797
0.252072
0.241379
0.578531
0.564125
0.557302
0.55039
0.541534
0.53048
0.517366
0.502609
0.486658
0.469908
0.452685
0.435254
0.417826
0.400569
0.383615
0.367063
0.350991
0.335454
0.320493
0.306134
0.2924
0.279283
0.266739
0.254804
0.24382
0.591783
0.577008
0.569641
0.562004
0.552346
0.540491
0.526613
0.511143
0.494531
0.47717
0.459382
0.44143
0.423522
0.405822
0.388458
0.37153
0.35511
0.339254
0.323998
0.309367
0.295381
0.282033
0.269288
0.257168
0.245928
0.603043
0.587952
0.580122
0.571868
0.561528
0.548992
0.534466
0.51839
0.501217
0.483336
0.465068
0.446673
0.428355
0.410277
0.392565
0.375315
0.3586
0.34247
0.326963
0.312101
0.297898
0.284353
0.271437
0.25916
0.247699
0.612267
0.596915
0.588705
0.579945
0.569047
0.555955
0.540899
0.524327
0.506693
0.488386
0.469724
0.450964
0.43231
0.413921
0.395923
0.378408
0.361449
0.345095
0.32938
0.314326
0.299947
0.286239
0.273181
0.260775
0.24913
0.61942
0.603861
0.595356
0.586206
0.574878
0.561356
0.545889
0.528933
0.510942
0.492304
0.473335
0.454292
0.435375
0.416744
0.398521
0.3808
0.36365
0.34712
0.331242
0.316039
0.30152
0.287684
0.274515
0.262007
0.250221
0.624471
0.608761
0.600049
0.590627
0.578997
0.565174
0.549419
0.532192
0.513949
0.495076
0.47589
0.456644
0.43754
0.418736
0.400353
0.382483
0.365196
0.348539
0.332544
0.317233
0.302613
0.288685
0.275437
0.262858
0.250974
0.627398
0.611595
0.602765
0.593189
0.581389
0.567395
0.551475
0.534093
0.515703
0.496692
0.477378
0.458013
0.438798
0.41989
0.401411
0.383452
0.366082
0.349348
0.333283
0.317905
0.303224
0.289239
0.275942
0.26332
0.251376
0.628186
0.612348
0.60349
0.59388
0.582043
0.568009
0.552049
0.534626
0.516196
0.497147
0.477795
0.458394
0.439144
0.420203
0.401692
0.383704
0.366305
0.349544
0.333454
0.318053
0.30335
0.289344
0.276028
0.263388
0.25142
0.626828
0.611012
0.602217
0.592695
0.580953
0.567012
0.551135
0.533788
0.515425
0.496436
0.477137
0.457783
0.438575
0.419671
0.401194
0.383235
0.365863
0.349127