/*--------------------------------*- C++ -*----------------------------------*\
  =========                 |
  \\      /  F ield         | OpenFOAM: The Open Source CFD Toolbox
   \\    /   O peration     | Website:  https://openfoam.org
    \\  /    A nd           | Version:  7
     \\/     M anipulation  |
\*---------------------------------------------------------------------------*/
FoamFile
{
    version     2.0;
    format      ascii;
    class       surfaceScalarField;
    location    "150";
    object      phi;
}
// * * * * * * * * * * * * * * * * * * * * * * * * * * * * * * * * * * * * * //

dimensions      [0 3 -1 0 0 0 0];

internalField   nonuniform List<scalar> 
63130
(
-1.71716e-06
-8.98077e-05
9.15249e-05
-7.14001e-06
-0.000246158
0.000251581
-1.67067e-05
-0.000386456
0.000396022
-3.06741e-05
-0.000508882
0.000522849
-4.9049e-05
-0.000613296
0.000631671
-7.15922e-05
-0.000701431
0.000723974
-9.78731e-05
-0.000776497
0.000802778
-0.000127347
-0.000842533
0.000872007
-0.000159433
-0.000903601
0.000935686
-0.000193558
-0.000963036
0.000997162
-0.000229174
-0.00102291
0.00105852
-0.000265725
-0.00108373
0.00112028
-0.000302585
-0.00114441
0.00118127
-0.000338984
-0.00120224
0.00123864
-0.000373925
-0.001253
0.00128794
-0.000406123
-0.00129091
0.00132311
-0.00043396
-0.00130865
0.00133649
-0.000455498
-0.00129728
0.00131882
-0.000468533
-0.00124638
0.00125941
-0.000470687
-0.00114433
0.00114649
-0.000459546
-0.000978966
0.000967825
-0.000432769
-0.000738471
0.000711694
-0.000387885
-0.000412853
0.000367968
-0.000322794
3.75291e-06
-6.88435e-05
0.000512929
-0.000600738
-0.000234986
-2.40484e-06
-8.74029e-05
-9.49644e-06
-0.000239066
-2.14458e-05
-0.000374506
-3.82884e-05
-0.000492039
-5.98647e-05
-0.00059172
-8.58328e-05
-0.000675463
-0.000115724
-0.000746605
-0.000149017
-0.00080924
-0.000185199
-0.000867419
-0.000223804
-0.000924431
-0.00026441
-0.000982302
-0.000306598
-0.00104155
-0.000349881
-0.00110112
-0.000393623
-0.0011585
-0.000436945
-0.00120967
-0.000478649
-0.00124921
-0.000517156
-0.00127015
-0.000550478
-0.00126396
-0.000576242
-0.00122061
-0.000591761
-0.00112881
-0.000594165
-0.000976562
-0.000580558
-0.000752078
-0.000548009
-0.000445401
-0.000494148
-5.01086e-05
0.000436165
-0.000417384
-3.07006e-06
-8.43328e-05
-1.17558e-05
-0.000230381
-2.59528e-05
-0.000360309
-4.54718e-05
-0.00047252
-6.99876e-05
-0.000567204
-9.90578e-05
-0.000646393
-0.000132176
-0.000713487
-0.00016884
-0.000772577
-0.000208597
-0.000827661
-0.000251074
-0.000881954
-0.000295956
-0.00093742
-0.000342941
-0.000994562
-0.000391663
-0.0010524
-0.000441603
-0.00110856
-0.000491999
-0.00115928
-0.000541751
-0.00119946
-0.000589341
-0.00122256
-0.000632777
-0.00122052
-0.000669577
-0.00118381
-0.000696817
-0.00110157
-0.000711251
-0.000962128
-0.000709516
-0.000753812
-0.00068835
-0.000466567
-0.000645006
-9.34527e-05
0.000369928
-0.000578769
-3.70176e-06
-8.06311e-05
-1.38838e-05
-0.000220199
-3.01653e-05
-0.000344028
-5.21335e-05
-0.000450552
-7.93007e-05
-0.000540037
-0.000111127
-0.000614567
-0.000147067
-0.000677546
-0.000186631
-0.000733013
-0.000229417
-0.000784875
-0.000275124
-0.000836248
-0.000323522
-0.000889021
-0.000374402
-0.000943683
-0.00042749
-0.000999315
-0.000482369
-0.00105368
-0.000538377
-0.00110327
-0.000594511
-0.00114332
-0.000649335
-0.00116773
-0.000700892
-0.00116897
-0.000746662
-0.00113804
-0.000783569
-0.00106467
-0.000808095
-0.000937601
-0.000816527
-0.00074538
-0.000805312
-0.000477783
-0.000771566
-0.000127198
0.000313005
-0.000714643
-4.28975e-06
-7.63413e-05
-1.58498e-05
-0.000208639
-3.40281e-05
-0.00032585
-5.81944e-05
-0.000426386
-8.77044e-05
-0.000510527
-0.000121923
-0.000580349
-0.000160266
-0.000639203
-0.000202246
-0.000691033
-0.000247498
-0.000739623
-0.000295773
-0.000787973
-0.000346901
-0.000837893
-0.000400734
-0.00088985
-0.000457064
-0.000942984
-0.000515543
-0.000995199
-0.000575586
-0.00104323
-0.000636278
-0.00108263
-0.000696266
-0.00110774
-0.000753664
-0.00111157
-0.00080597
-0.00108574
-0.00085005
-0.00102059
-0.000882223
-0.000905429
-0.000898528
-0.000729075
-0.00089524
-0.000481071
-0.000869262
-0.000153177
0.000263279
-0.000819536
-4.82495e-06
-7.15164e-05
-1.76266e-05
-0.000195837
-3.74933e-05
-0.000305983
-6.35876e-05
-0.000400291
-9.51159e-05
-0.000478998
-0.000131351
-0.000544113
-0.000171668
-0.000598886
-0.000215575
-0.000647125
-0.000262726
-0.000692473
-0.000312901
-0.000737798
-0.000365963
-0.00078483
-0.000421795
-0.000834018
-0.000480221
-0.000884559
-0.000540924
-0.000934495
-0.000603366
-0.000980784
-0.000666692
-0.00101931
-0.000729623
-0.00104481
-0.000790352
-0.00105084
-0.00084644
-0.00102965
-0.000894766
-0.000972261
-0.000931583
-0.000868612
-0.00095277
-0.000707887
-0.000954433
-0.000479408
-0.000933413
-0.000174197
0.000217337
-0.00088747
-5.29941e-06
-6.62169e-05
-1.91908e-05
-0.000181946
-4.05205e-05
-0.000284653
-6.82574e-05
-0.000372555
-0.000101468
-0.000445787
-0.000139338
-0.000506243
-0.000181198
-0.000557026
-0.000226541
-0.000601782
-0.000275024
-0.000643989
-0.000326437
-0.000686386
-0.000380647
-0.00073062
-0.000437536
-0.00077713
-0.00049692
-0.000825175
-0.000558481
-0.000872935
-0.000621683
-0.000917582
-0.000685691
-0.000955298
-0.000749274
-0.00098123
-0.000810689
-0.000989425
-0.000867574
-0.000972765
-0.000916867
-0.000922968
-0.000954813
-0.000830666
-0.000977177
-0.000685524
-0.00097996
-0.000476625
-0.000959635
-0.000194521
0.000170565
-0.000912863
-5.70638e-06
-6.05106e-05
-2.05228e-05
-0.000167129
-4.30763e-05
-0.0002621
-7.2159e-05
-0.000343472
-0.000106709
-0.000411238
-0.000145828
-0.000467124
-0.000188798
-0.000514056
-0.000235091
-0.000555489
-0.000284351
-0.00059473
-0.000336353
-0.000634383
-0.000390945
-0.000676027
-0.000447977
-0.000720098
-0.000507224
-0.000765928
-0.000568323
-0.000811837
-0.000630697
-0.000855208
-0.000693486
-0.000892509
-0.000755456
-0.00091926
-0.000814897
-0.000929984
-0.000869504
-0.000918159
-0.000916278
-0.000876193
-0.000951487
-0.000795457
-0.000970773
-0.000666238
-0.000969874
-0.000477525
-0.000945281
-0.000219115
0.000117004
-0.00089172
-6.04036e-06
-5.44702e-05
-2.16071e-05
-0.000151562
-4.51345e-05
-0.000238572
-7.52577e-05
-0.000313349
-0.000110798
-0.000375698
-0.000150777
-0.000427145
-0.000194429
-0.000470404
-0.000241192
-0.000508726
-0.000290683
-0.000545239
-0.000342646
-0.000582421
-0.000396883
-0.00062179
-0.000453186
-0.000663795
-0.000511258
-0.000707856
-0.000570651
-0.000752443
-0.000630707
-0.000795152
-0.000690488
-0.000832728
-0.000748706
-0.000861042
-0.000803626
-0.000875064
-0.000852959
-0.000868826
-0.000893745
-0.000835408
-0.000922261
-0.00076694
-0.000934009
-0.00065449
-0.000924335
-0.000487198
-0.000889603
-0.000253847
5.01402e-05
-0.00082274
-6.2971e-06
-4.81731e-05
-2.24315e-05
-0.000135428
-4.66755e-05
-0.000214328
-7.75279e-05
-0.000282496
-0.000113706
-0.000339519
-0.000154158
-0.000386692
-0.000198066
-0.000426497
-0.000244825
-0.000461966
-0.000294014
-0.000496051
-0.000345325
-0.000531109
-0.0003985
-0.000568615
-0.000453246
-0.00060905
-0.000509168
-0.000651934
-0.000565704
-0.000695907
-0.000622073
-0.000738784
-0.000677215
-0.000777585
-0.000729732
-0.000808525
-0.000777809
-0.000826987
-0.000819114
-0.000827521
-0.000850677
-0.000803844
-0.000868766
-0.000748851
-0.000868723
-0.000654533
-0.000845262
-0.000510659
-0.000794804
-0.000304305
-3.66347e-05
-0.000708029
-6.47359e-06
-4.16995e-05
-2.2988e-05
-0.000118914
-4.76856e-05
-0.000189631
-7.89523e-05
-0.00025123
-0.000115414
-0.000303057
-0.000155951
-0.000346155
-0.000199689
-0.000382759
-0.000245976
-0.00041568
-0.000294336
-0.000447691
-0.0003444
-0.000481045
-0.000395827
-0.000517188
-0.000448224
-0.000556652
-0.000501077
-0.000599082
-0.000553685
-0.000643298
-0.000605116
-0.000687353
-0.000654152
-0.00072855
-0.000699241
-0.000763436
-0.000738434
-0.000787793
-0.000769303
-0.000796652
-0.000788821
-0.000784327
-0.000793222
-0.000744449
-0.000777739
-0.000670016
-0.000736274
-0.000552124
-0.000665257
-0.000375321
-0.000149009
-0.000552883
-6.56808e-06
-3.51314e-05
-2.32716e-05
-0.00010221
-4.81575e-05
-0.000164745
-7.95214e-05
-0.000219866
-0.000115912
-0.000266666
-0.000156145
-0.000305923
-0.000199288
-0.000339616
-0.000244633
-0.000370334
-0.000291641
-0.000400683
-0.000339865
-0.000432821
-0.000388869
-0.000468184
-0.000438145
-0.000507376
-0.000487042
-0.000550185
-0.000534706
-0.000595634
-0.000580032
-0.000642027
-0.000621621
-0.000686961
-0.000657739
-0.000727318
-0.00068627
-0.000759263
-0.000704647
-0.000778275
-0.000709752
-0.000779223
-0.000697777
-0.000756424
-0.000663968
-0.000703826
-0.000601389
-0.000614703
-0.000506415
-0.000470295
-0.000291717
-0.000363707
-6.58008e-06
-2.85513e-05
-2.32814e-05
-8.55088e-05
-4.80895e-05
-0.000139937
-7.92332e-05
-0.000188722
-0.000115197
-0.000230702
-0.000154735
-0.000266385
-0.000196855
-0.000297496
-0.000240786
-0.000326404
-0.000285912
-0.000355557
-0.000331697
-0.000387036
-0.000377596
-0.000422285
-0.000422972
-0.000462
-0.000467026
-0.000506131
-0.000508736
-0.000553924
-0.000546814
-0.000603949
-0.000579668
-0.000654107
-0.000605368
-0.000701618
-0.000621613
-0.000743018
-0.000625682
-0.000774205
-0.000614355
-0.00079055
-0.000583779
-0.000786999
-0.000529366
-0.000758239
-0.000443429
-0.00070064
-0.000322655
-0.00059107
-0.000463136
-0.000151236
-6.51038e-06
-2.2041e-05
-2.30197e-05
-6.89995e-05
-4.74861e-05
-0.00011547
-7.80936e-05
-0.000158114
-0.000113274
-0.000195522
-0.000151724
-0.000227935
-0.000192389
-0.000256831
-0.000234422
-0.00028437
-0.000277123
-0.000312856
-0.00031985
-0.000344309
-0.000361937
-0.000380198
-0.000402604
-0.000421333
-0.000440889
-0.000467846
-0.000475592
-0.000519221
-0.000505231
-0.00057431
-0.000528015
-0.000631324
-0.000541815
-0.000687818
-0.000544146
-0.000740687
-0.000532137
-0.000786215
-0.000502474
-0.000820213
-0.000451273
-0.0008382
-0.000374286
-0.000835225
-0.000263154
-0.000811772
-0.000112214
-0.00074201
-0.0006616
8.62495e-05
-6.3611e-06
-1.56799e-05
-2.24928e-05
-5.28678e-05
-4.63579e-05
-9.16051e-05
-7.61166e-05
-0.000128356
-0.000110159
-0.000161479
-0.000147126
-0.000190968
-0.000185894
-0.000218063
-0.000225535
-0.00024473
-0.000265246
-0.000273145
-0.000304268
-0.000305286
-0.000341795
-0.000342672
-0.000376887
-0.00038624
-0.000408406
-0.000436327
-0.000434957
-0.00049267
-0.000454854
-0.000554412
-0.000466099
-0.000620078
-0.000466366
-0.000687552
-0.000452991
-0.000754062
-0.000422968
-0.000816237
-0.00037292
-0.000870261
-0.000298928
-0.000912192
-0.000197336
-0.000936817
-6.11843e-05
-0.000947924
0.000118532
-0.000921726
-0.000899913
0.000356845
-6.13571e-06
-9.54416e-06
-2.17109e-05
-3.72926e-05
-4.47222e-05
-6.85937e-05
-7.33251e-05
-9.97529e-05
-0.000105877
-0.000128927
-0.000140964
-0.000155882
-0.000177387
-0.00018164
-0.000214124
-0.000207993
-0.000250257
-0.000237011
-0.000284891
-0.000270653
-0.000317059
-0.000310504
-0.000345644
-0.000357656
-0.000369308
-0.000412664
-0.000386444
-0.000475534
-0.000395148
-0.000545708
-0.000393205
-0.000622022
-0.000378088
-0.000702668
-0.000346971
-0.000785178
-0.000296733
-0.000866476
-0.000223977
-0.000943017
-0.000124711
-0.00101146
5.64252e-06
-0.00106717
0.000170367
-0.00111265
0.000373967
-0.00112533
-0.00117439
0.000648448
-5.83907e-06
-3.70509e-06
-2.06881e-05
-2.24436e-05
-4.26035e-05
-4.66784e-05
-6.97518e-05
-7.26046e-05
-0.000100465
-9.82133e-05
-0.000133274
-0.000123073
-0.000166898
-0.000148016
-0.000200206
-0.000174685
-0.00023215
-0.000205068
-0.000261676
-0.000241127
-0.000287637
-0.000284542
-0.000308713
-0.00033658
-0.000323344
-0.000398033
-0.00032969
-0.000469188
-0.00032561
-0.000549788
-0.000308664
-0.000638968
-0.000276131
-0.000735202
-0.00022504
-0.000836269
-0.000152199
-0.000939316
-5.42239e-05
-0.00104099
7.24981e-05
-0.00113818
0.000231281
-0.00122595
0.000428822
-0.00131019
0.00066219
-0.00135869
-0.00147956
0.000967361
-5.47747e-06
1.77238e-06
-1.94428e-05
-8.47822e-06
-4.00333e-05
-2.60879e-05
-6.54404e-05
-4.71975e-05
-9.3976e-05
-6.96776e-05
-0.000124112
-9.29364e-05
-0.000154478
-0.00011765
-0.000183822
-0.000145341
-0.000210945
-0.000177946
-0.000234614
-0.000217458
-0.000253479
-0.000265677
-0.000265991
-0.000324067
-0.000270347
-0.000393677
-0.000264453
-0.000475082
-0.00024592
-0.00056832
-0.000212085
-0.000672803
-0.000160052
-0.000787235
-8.67496e-05
-0.000909572
1.10272e-05
-0.00103709
0.000136423
-0.00116639
0.000292812
-0.00129457
0.000483366
-0.00141651
0.000713077
-0.0015399
0.000978507
-0.00162412
-0.00181205
0.00131099
-5.05855e-06
6.83093e-06
-1.79973e-05
4.46057e-06
-3.70511e-05
-7.03415e-06
-6.04456e-05
-2.3803e-05
-8.64758e-05
-4.36474e-05
-0.000113553
-6.58596e-05
-0.000140205
-9.09978e-05
-0.000165045
-0.000120501
-0.000186704
-0.000156286
-0.000203752
-0.00020041
-0.000214611
-0.000254819
-0.000217482
-0.000321196
-0.0002103
-0.000400859
-0.000190709
-0.000494673
-0.000156077
-0.000602953
-0.000103542
-0.000725337
-3.00853e-05
-0.000860692
6.73619e-05
-0.00100702
0.000191837
-0.00116157
0.000346285
-0.00132084
0.000533343
-0.00148163
0.000755962
-0.00163913
0.00101703
-0.00180096
0.00131366
-0.00192076
-0.00216718
0.00166879
-4.59114e-06
1.14221e-05
-1.63781e-05
1.62476e-05
-3.37035e-05
1.02912e-05
-5.48337e-05
-2.67282e-06
-7.80478e-05
-2.04333e-05
-0.000101691
-4.22166e-05
-0.000124182
-6.85067e-05
-0.000143983
-0.000100699
-0.000159541
-0.000140729
-0.000169205
-0.000190746
-0.000171152
-0.000252872
-0.000163321
-0.000329027
-0.000143377
-0.000420803
-0.000108711
-0.00052934
-5.64758e-05
-0.000655187
1.6327e-05
-0.00079814
0.000112717
-0.000957082
0.000235636
-0.00112994
0.000387776
-0.00131371
0.000571557
-0.00150462
0.000788637
-0.00169871
0.00104139
-0.00189188
0.00133037
-0.00208994
0.00165381
-0.0022442
-0.00253776
0.00202439
-4.08525e-06
1.55073e-05
-1.46149e-05
2.67772e-05
-3.00439e-05
2.57202e-05
-4.86819e-05
1.59652e-05
-6.87908e-05
-3.24482e-07
-8.86448e-05
-2.23626e-05
-0.000106544
-5.06078e-05
-0.000120788
-8.64549e-05
-0.000129621
-0.000131895
-0.00013116
-0.000189207
-0.000123327
-0.000260705
-0.000103792
-0.000348562
-6.99617e-05
-0.000454633
-1.90059e-05
-0.000580296
5.20671e-05
-0.00072626
0.000146279
-0.000892352
0.000266524
-0.00107733
0.000415372
-0.00127879
0.000594902
-0.00149324
0.000806724
-0.00171644
0.00105127
-0.00194325
0.00132981
-0.00217042
0.00164065
-0.00240078
0.00198329
-0.00258685
-0.00291413
0.00235966
-3.55169e-06
1.9059e-05
-1.27403e-05
3.59658e-05
-2.61315e-05
3.91115e-05
-4.20767e-05
3.19104e-05
-5.88177e-05
1.64166e-05
-7.45521e-05
-6.62826e-06
-8.74522e-05
-3.77076e-05
-9.5645e-05
-7.82621e-05
-9.71627e-05
-0.000130378
-8.98794e-05
-0.00019649
-7.14604e-05
-0.000279124
-3.93175e-05
-0.000380705
9.36728e-06
-0.000503318
7.75858e-05
-0.000648514
0.000168369
-0.000817043
0.000284612
-0.0010086
0.000428854
-0.00122157
0.00060305
-0.00145298
0.000808365
-0.00169855
0.00104526
-0.00195334
0.00131283
-0.00221082
0.00161072
-0.0024683
0.00193534
-0.0027254
0.00228749
-0.002939
-0.00328523
0.00265859
-3.00173e-06
2.20607e-05
-1.07885e-05
4.37525e-05
-2.20291e-05
5.03521e-05
-3.51113e-05
4.49926e-05
-4.82521e-05
2.95574e-05
-5.95664e-05
4.68605e-06
-6.70919e-05
-3.01821e-05
-6.87748e-05
-7.65792e-05
-6.24289e-05
-0.000136724
-4.56829e-05
-0.000213236
-1.59601e-05
-0.000308847
2.95643e-05
-0.000426229
9.38773e-05
-0.000567631
0.000180032
-0.000734669
0.000290962
-0.000927974
0.000429236
-0.00114687
0.000596788
-0.00138912
0.000794669
-0.00165086
0.00102285
-0.00192674
0.00128035
-0.00221084
0.00156491
-0.00249539
0.00187433
-0.00277772
0.00220362
-0.00305469
0.0025549
-0.00329029
-0.00364062
0.00291029
-2.44667e-06
2.45074e-05
-8.79439e-06
5.01002e-05
-1.78013e-05
5.9359e-05
-2.78826e-05
5.50739e-05
-3.72237e-05
3.88985e-05
-4.38513e-05
1.13136e-05
-4.5662e-05
-2.83714e-05
-4.0417e-05
-8.18243e-05
-2.57123e-05
-0.000151428
1.0457e-06
-0.000239994
4.27087e-05
-0.00035051
0.000102237
-0.000485757
0.000182721
-0.000648115
0.000287156
-0.000839104
0.000418195
-0.00105901
0.000577847
-0.00130652
0.00076717
-0.00157844
0.000986032
-0.00186972
0.00123299
-0.0021737
0.00150546
-0.0024833
0.00179992
-0.00278985
0.00211248
-0.00309028
0.0024374
-0.00337961
0.00277814
-0.00363102
-0.00397443
0.00311194
-1.89738e-06
2.64048e-05
-6.7917e-06
5.49946e-05
-1.35112e-05
6.60784e-05
-2.04864e-05
6.20491e-05
-2.58627e-05
4.42748e-05
-2.75718e-05
1.30228e-05
-2.33654e-05
-3.25778e-05
-1.08183e-05
-9.43714e-05
1.26894e-05
-0.000174936
4.99846e-05
-0.000277289
0.000104062
-0.000404586
0.000178046
-0.000559742
0.000275002
-0.000745071
0.000397704
-0.000961806
0.000548316
-0.00120962
0.000728033
-0.00148624
0.000936768
-0.00178718
0.00117297
-0.00210593
0.00143368
-0.00243441
0.00171473
-0.00276435
0.00201158
-0.00308669
0.00231916
-0.00339787
0.00263179
-0.00369223
0.00295375
-0.00395298
-0.00428007
0.00325939
-1.36374e-06
2.77685e-05
-4.81149e-06
5.84423e-05
-9.21777e-06
7.04847e-05
-1.30128e-05
6.58441e-05
-1.42918e-05
4.55538e-05
-1.08853e-05
9.61627e-06
-3.97773e-07
-4.30653e-05
1.9784e-05
-0.000114553
5.24803e-05
-0.000207632
0.000100708
-0.000325517
0.00016761
-0.000471489
0.000256338
-0.00064847
0.00036981
-0.000858542
0.000510396
-0.00110239
0.000679533
-0.00137876
0.000877344
-0.00168405
0.00110237
-0.0020122
0.0013515
-0.00235506
0.00162029
-0.0027032
0.00190328
-0.00304734
0.00219526
-0.00337867
0.00249074
-0.00369334
0.00278493
-0.00398643
0.00308257
-0.00425062
-0.00455618
0.00335868
-8.54117e-07
2.86227e-05
-2.88051e-06
6.04687e-05
-4.97222e-06
7.25764e-05
-5.54089e-06
6.64128e-05
-2.61977e-06
4.26327e-05
6.06899e-06
9.27511e-07
2.30722e-05
-6.00685e-05
5.11788e-05
-0.00014266
9.33973e-05
-0.000249851
0.000152899
-0.000385019
0.000232904
-0.000551494
0.000336482
-0.000752047
0.000466241
-0.000988302
0.000623934
-0.00126008
0.000810024
-0.00156485
0.00102332
-0.00189735
0.00126084
-0.00224972
0.00151793
-0.00261216
0.00178886
-0.00297413
0.00206737
-0.00332585
0.00234811
-0.00365941
0.00262593
-0.00397116
0.00289774
-0.00425825
0.0031682
-0.00452107
-0.00480338
0.00341539
-3.74933e-07
2.89976e-05
-1.01948e-06
6.11133e-05
-8.14992e-07
7.23719e-05
1.86629e-06
6.37315e-05
9.0672e-06
3.54318e-05
2.31806e-05
-1.31858e-05
4.69033e-05
-8.37912e-05
8.31953e-05
-0.000178952
0.000135225
-0.000301881
0.00020627
-0.000456063
0.000299535
-0.000644759
0.000417875
-0.000870388
0.000563398
-0.00113383
0.000737002
-0.00143369
0.000937935
-0.00176578
0.00116352
-0.00212293
0.00140921
-0.0024954
0.00166899
-0.00287195
0.00193626
-0.0032414
0.00220458
-0.00359417
0.00246905
-0.00392387
0.00272558
-0.00422769
0.00297322
-0.00450589
0.00321586
-0.00476371
-0.00502362
0.0034361
7.00705e-08
2.89275e-05
7.57763e-07
6.04256e-05
3.22696e-06
6.99027e-05
9.16678e-06
5.77917e-05
2.071e-05
2.38885e-05
4.03732e-05
-3.2849e-05
7.10027e-05
-0.000114421
0.000115715
-0.000223664
0.000177803
-0.000363969
0.000260582
-0.000538843
0.000367134
-0.00075131
0.00049993
-0.00100318
0.000660361
-0.00129426
0.000848231
-0.00162156
0.00106137
-0.00197892
0.00129554
-0.0023571
0.00154474
-0.0027446
0.00180199
-0.0031292
0.00206035
-0.00349976
0.00231386
-0.00384769
0.00255865
-0.00416866
0.00279223
-0.00446127
0.00301578
-0.00472943
0.00323161
-0.00497954
-0.00521995
0.00342794
4.79307e-07
2.84482e-05
2.44609e-06
5.84588e-05
7.14208e-06
6.52067e-05
1.63413e-05
4.85925e-05
3.22827e-05
7.94709e-06
5.76136e-05
-5.818e-05
9.53263e-05
-0.000152133
0.000148672
-0.000277009
0.000221023
-0.00043632
0.000315644
-0.000633464
0.00043535
-0.000871017
0.00058204
-0.00114987
0.000756151
-0.00146837
0.000956174
-0.00182158
0.0011784
-0.00220114
0.00141707
-0.00259577
0.00166506
-0.0029926
0.00191492
-0.00337905
0.00216002
-0.00374485
0.00239549
-0.00408315
0.00261886
-0.00439203
0.00282954
-0.00467195
0.00303039
-0.00493028
0.00322209
-0.00517125
-0.00539872
0.00340086
8.54326e-07
2.75939e-05
4.04899e-06
5.52641e-05
1.09354e-05
5.83204e-05
2.33966e-05
3.61313e-05
4.37937e-05
-1.245e-05
7.49111e-05
-8.92974e-05
0.000119879
-0.000197101
0.000182054
-0.000339184
0.00026482
-0.000519086
0.000371282
-0.000739926
0.00050382
-0.00100356
0.000663539
-0.00130959
0.000849696
-0.00165452
0.0010593
-0.00203119
0.00128709
-0.00242893
0.00152603
-0.00283471
0.00176833
-0.00323489
0.00200664
-0.00361737
0.00223528
-0.00397349
0.00245086
-0.00429874
0.00265258
-0.00459374
0.00284169
-0.00486107
0.00302186
-0.00511044
0.00319346
-0.00534285
-0.00557445
0.00336919
1.19948e-06
2.63944e-05
5.57825e-06
5.08853e-05
1.46281e-05
4.92705e-05
3.03641e-05
2.03953e-05
5.52847e-05
-3.73707e-05
9.2315e-05
-0.000126328
0.000144709
-0.000249495
0.000215883
-0.000410359
0.000309151
-0.000612354
0.000427314
-0.000858089
0.000572123
-0.00114836
0.000743661
-0.00148113
0.000939809
-0.00185067
0.00115602
-0.0022474
0.00138562
-0.00265854
0.00162069
-0.00306978
0.0018533
-0.00346751
0.00207688
-0.00384095
0.00228709
-0.0041837
0.00248229
-0.00449395
0.00266329
-0.00477474
0.00283286
-0.00503064
0.00299483
-0.00527241
0.00315257
-0.0055006
-0.00573725
0.00331537
1.52144e-06
2.4873e-05
7.05362e-06
4.53532e-05
1.82562e-05
3.8068e-05
3.72975e-05
1.35392e-06
6.68264e-05
-6.68995e-05
0.000109907
-0.000169408
0.000169892
-0.00030948
0.0002502
-0.000490667
0.000353961
-0.000716114
0.000483506
-0.000987634
0.000639742
-0.0013046
0.000821517
-0.0016629
0.0010252
-0.00205436
0.00124475
-0.00246695
0.00147238
-0.00288616
0.00169977
-0.00329716
0.00191948
-0.00368723
0.00212618
-0.00404764
0.0023172
-0.00437471
0.00249261
-0.00466936
0.00265464
-0.00493677
0.00280701
-0.00518301
0.00295383
-0.00541923
0.00309924
-0.00564601
-0.0058865
0.00324849
1.82895e-06
2.3044e-05
8.50121e-06
3.86809e-05
2.18675e-05
2.47017e-05
4.42681e-05
-2.10466e-05
7.85102e-05
-0.000101142
0.000127789
-0.000218687
0.000195518
-0.000377209
0.000285035
-0.000580184
0.000399151
-0.00083023
0.000539537
-0.00112802
0.000706036
-0.0014711
0.00089609
-0.00185296
0.00110453
-0.0022628
0.00132402
-0.00268643
0.00154607
-0.00310822
0.00176256
-0.00351365
0.00196707
-0.00389174
0.00215582
-0.00423639
0.00232789
-0.00454678
0.00248489
-0.00482636
0.00263009
-0.00508197
0.00276776
-0.00532068
0.00290199
-0.00555346
0.00303664
-0.00578066
-0.00602573
0.00317587
2.13218e-06
2.09118e-05
9.95162e-06
3.08615e-05
2.55183e-05
9.13502e-06
5.13577e-05
-4.6886e-05
9.04385e-05
-0.000140222
0.000146067
-0.000274315
0.000221663
-0.000452805
0.00032038
-0.000678902
0.000444547
-0.000954397
0.000594969
-0.00127844
0.000770234
-0.00164637
0.000966275
-0.002049
0.00117649
-0.00247301
0.00139256
-0.00290251
0.00160586
-0.00332152
0.00180898
-0.00371677
0.00199691
-0.00407966
0.00216759
-0.00440707
0.00232173
-0.00470093
0.00246215
-0.00496678
0.00259281
-0.00521263
0.00271811
-0.00544599
0.00284185
-0.0056772
0.00296757
-0.00590638
-0.00615616
0.003098
2.44201e-06
1.84698e-05
1.14376e-05
2.18659e-05
2.9268e-05
-8.69534e-06
5.86516e-05
-7.62696e-05
0.000102712
-0.000184283
0.000164834
-0.000336437
0.00024837
-0.000536341
0.00035616
-0.000786692
0.000489871
-0.00108811
0.000649241
-0.00143781
0.000831451
-0.00182858
0.00103093
-0.00224848
0.00123987
-0.00268196
0.00144944
-0.00311208
0.00165139
-0.00352346
0.00183946
-0.00390485
0.00201032
-0.00425052
0.00216358
-0.00456033
0.00230131
-0.00483866
0.00242719
-0.00509266
0.00254548
-0.00533092
0.00266045
-0.00556095
0.00277543
-0.00579218
0.0028935
-0.00602444
-0.00627905
0.00301639
2.76928e-06
1.57005e-05
1.29917e-05
1.16434e-05
3.31747e-05
-2.88783e-05
6.62296e-05
-0.000109325
0.000115418
-0.000233472
0.000184155
-0.000405174
0.000275628
-0.000627814
0.000392215
-0.000903279
0.000534732
-0.00123062
0.000701671
-0.00160475
0.000888732
-0.00201564
0.00108896
-0.00244871
0.00129371
-0.0028867
0.00149411
-0.00331248
0.00168277
-0.00371213
0.00185495
-0.00407703
0.00200898
-0.00440455
0.002146
-0.00469734
0.00226911
-0.00496178
0.00238247
-0.00520602
0.00249035
-0.00543879
0.00259664
-0.00566725
0.0027042
-0.00589974
0.00281559
-0.00613584
-0.00639524
0.00293178
3.12406e-06
1.25765e-05
1.46438e-05
1.23692e-07
3.72903e-05
-5.15248e-05
7.41585e-05
-0.000146193
0.000128618
-0.000287931
0.000204046
-0.000480602
0.000303352
-0.00072712
0.000428286
-0.00102821
0.000578626
-0.00138096
0.000751489
-0.00177762
0.000941114
-0.00220526
0.00113941
-0.00264701
0.0013373
-0.00308459
0.00152641
-0.00350159
0.00170059
-0.0038863
0.00185672
-0.00423316
0.00199474
-0.00454258
0.00211702
-0.00481962
0.00222735
-0.00507211
0.00233006
-0.00530872
0.00242916
-0.0055379
0.00252811
-0.0057662
0.00262923
-0.00600085
0.00273463
-0.00624124
-0.00650528
0.00284466
3.51498e-06
9.06149e-06
1.64189e-05
-1.27803e-05
4.16559e-05
-7.67618e-05
8.24847e-05
-0.000187022
0.000142338
-0.000347785
0.000224473
-0.000562736
0.000331382
-0.00083403
0.000464016
-0.00116085
0.000620956
-0.0015379
0.000797882
-0.00195454
0.000987697
-0.00239508
0.00118152
-0.00284083
0.00137031
-0.00327337
0.0015466
-0.00367788
0.00170574
-0.00404544
0.00184625
-0.00437367
0.00196947
-0.00466579
0.00207865
-0.0049288
0.00217796
-0.00517142
0.00227162
-0.00540239
0.00236329
-0.00562957
0.0024559
-0.0058588
0.00255127
-0.00609623
0.00265114
-0.00634111
-0.00660954
0.00275541
3.94882e-06
5.11266e-06
1.83359e-05
-2.71673e-05
4.62991e-05
-0.000104725
9.123e-05
-0.000231953
0.000156565
-0.00041312
0.000245336
-0.000651507
0.000359474
-0.000948168
0.000498962
-0.00130033
0.000661066
-0.00170001
0.000840048
-0.00213352
0.00102771
-0.00258274
0.00121477
-0.00302789
0.00139269
-0.0034513
0.00155526
-0.00384045
0.00169939
-0.00418958
0.00182514
-0.00449942
0.00193495
-0.0047756
0.00203266
-0.00502651
0.00212253
-0.00526129
0.00220851
-0.00548836
0.00229377
-0.00571483
0.00238076
-0.00594579
0.00247089
-0.00618636
0.00256552
-0.00643574
-0.00670827
0.00266426
4.43017e-06
6.8249e-07
2.04059e-05
-4.3143e-05
5.12314e-05
-0.000135551
0.000100388
-0.000281109
0.00017124
-0.000483972
0.000266476
-0.000746743
0.000387313
-0.00106901
0.000532618
-0.00144564
0.000698278
-0.00186567
0.000877255
-0.0023125
0.00106055
-0.00276604
0.00123894
-0.00320628
0.00140475
-0.00361711
0.00155322
-0.00398891
0.00168283
-0.00431919
0.00179494
-0.00461152
0.00189281
-0.00487347
0.00198059
-0.00511428
0.00206238
-0.00534308
0.00214174
-0.00556772
0.00222138
-0.00579448
0.00230326
-0.00602767
0.00238846
-0.00627155
0.00247805
-0.00652534
-0.00680163
0.00257141
4.96133e-06
-4.27884e-06
2.26326e-05
-6.08143e-05
5.64481e-05
-0.000169366
0.000109924
-0.000334585
0.000186262
-0.000560311
0.00028768
-0.00084816
0.000414526
-0.00119585
0.00056444
-0.00159555
0.000731941
-0.00203317
0.000908886
-0.00248944
0.00108586
-0.00294301
0.00125406
-0.00337448
0.00140703
-0.00377008
0.00154149
-0.00412338
0.00165739
-0.00443509
0.00175713
-0.00471127
0.00184451
-0.00496084
0.00192369
-0.00519347
0.00199852
-0.00541792
0.0020721
-0.0056413
0.00214668
-0.00586905
0.0022238
-0.00610479
0.00230427
-0.00635202
0.00238894
-0.00661001
-0.00688972
0.00247703
5.54239e-06
-9.82123e-06
2.50117e-05
-8.02836e-05
6.19281e-05
-0.000206282
0.000119775
-0.000392431
0.000201491
-0.000642027
0.000308684
-0.000955354
0.000440701
-0.00132787
0.000593883
-0.00174873
0.000761467
-0.00220075
0.000934478
-0.00266246
0.00110346
-0.00311199
0.00126042
-0.00353144
0.00140024
-0.0039099
0.00152116
-0.0042443
0.00162438
-0.00453831
0.00171306
-0.00479994
0.00179125
-0.00503904
0.00186301
-0.00526522
0.00193177
-0.00548669
0.0020002
-0.00570973
0.0020701
-0.00593895
0.00214269
-0.00617739
0.00221856
-0.00642789
0.00229836
-0.00668981
-0.00697262
0.00238126
6.17148e-06
-1.59927e-05
2.75322e-05
-0.000101644
6.76355e-05
-0.000246386
0.000129855
-0.00045465
0.000216753
-0.000728926
0.000329195
-0.0010678
0.00046541
-0.00146408
0.00062043
-0.00190375
0.000786368
-0.00236669
0.000953738
-0.00282983
0.00111341
-0.00327167
0.00125848
-0.0036765
0.00138525
-0.00403667
0.00149336
-0.00435242
0.00158501
-0.00462996
0.00166388
-0.00487881
0.00173407
-0.00510923
0.00179935
-0.0053305
0.00186275
-0.00555008
0.00192647
-0.00577344
0.00199195
-0.00600444
0.00206015
-0.00624559
0.00213148
-0.00649921
0.00220645
-0.00676478
-0.00705037
0.0022842
6.845e-06
-2.28377e-05
3.01767e-05
-0.000124976
7.35217e-05
-0.000289731
0.000140056
-0.000521185
0.000231851
-0.00082072
0.000348897
-0.00118484
0.00048823
-0.00160342
0.00064362
-0.00205914
0.000806278
-0.00252935
0.000966548
-0.0029901
0.00111596
-0.00342108
0.00124885
-0.00380939
0.00136297
-0.00415079
0.00145917
-0.00444861
0.00154039
-0.00471119
0.00161061
-0.00494903
0.0016738
-0.00517242
0.00173337
-0.00539007
0.00179192
-0.00560863
0.00185124
-0.00583276
0.00191248
-0.00606568
0.00197636
-0.00630947
0.00204318
-0.00656603
0.00211334
-0.00683494
-0.007123
0.00218597
7.55797e-06
-3.03957e-05
3.29226e-05
-0.000150341
7.95276e-05
-0.000336336
0.000150257
-0.000591915
0.000246569
-0.000917032
0.000367472
-0.00130575
0.000508767
-0.00174471
0.000663074
-0.00221345
0.000820967
-0.00268724
0.000972955
-0.00314208
0.00111149
-0.00355962
0.00123225
-0.00393015
0.00133434
-0.00425287
0.00141959
-0.00453386
0.0014915
-0.0047831
0.00155409
-0.00501162
0.00161111
-0.00522944
0.00166557
-0.00544453
0.00171964
-0.0056627
0.00177478
-0.0058879
0.00183187
-0.00612277
0.00189147
-0.00636908
0.00195379
-0.00662835
0.00201913
-0.00690028
-0.00719055
0.00208667
8.30433e-06
-3.87e-05
3.57435e-05
-0.00017778
8.55855e-05
-0.000386178
0.000160324
-0.000666653
0.000260686
-0.00101739
0.000384609
-0.00142967
0.00052667
-0.00188677
0.000678502
-0.00236528
0.000830337
-0.00283908
0.000973152
-0.0032849
0.00110051
-0.00368698
0.00120944
-0.00403908
0.00130024
-0.00434367
0.00137554
-0.00460916
0.00143915
-0.00484671
0.00149501
-0.00506748
0.00154654
-0.00528096
0.00159633
-0.00549432
0.00164619
-0.00571256
0.00169727
-0.00593898
0.00175027
-0.00617577
0.00180561
-0.00642441
0.00186342
-0.00668617
0.00192394
-0.0069608
-0.00725301
0.00198641
9.07717e-06
-4.77772e-05
3.86096e-05
-0.000207312
9.16225e-05
-0.000439191
0.000170116
-0.000745146
0.00027398
-0.00112126
0.000400021
-0.00155571
0.000541649
-0.0020284
0.00068972
-0.00251335
0.000834418
-0.00298378
0.000967446
-0.00341793
0.00108359
-0.00380312