/*--------------------------------*- C++ -*----------------------------------*\
  =========                 |
  \\      /  F ield         | OpenFOAM: The Open Source CFD Toolbox
   \\    /   O peration     | Website:  https://openfoam.org
    \\  /    A nd           | Version:  7
     \\/     M anipulation  |
\*---------------------------------------------------------------------------*/
FoamFile
{
    version     2.0;
    format      ascii;
    class       volVectorField;
    location    "150";
    object      U;
}
// * * * * * * * * * * * * * * * * * * * * * * * * * * * * * * * * * * * * * //

dimensions      [0 1 -1 0 0 0 0];

internalField   nonuniform List<vector> 
31800
(
(0.000208699 -0.0415096 -1.36432e-20)
(-0.00107466 -0.108847 9.40135e-21)
(-0.00543674 -0.163482 -3.06304e-21)
(-0.0123491 -0.205954 1.35497e-20)
(-0.0215627 -0.237465 1.51201e-20)
(-0.0326709 -0.259807 -4.95581e-21)
(-0.0451497 -0.275088 -3.60399e-21)
(-0.0584569 -0.285422 2.54344e-20)
(-0.0720879 -0.292639 -2.90608e-21)
(-0.0856121 -0.298082 4.20498e-21)
(-0.0986832 -0.302517 1.45222e-20)
(-0.111024 -0.306161 1.4339e-20)
(-0.122396 -0.308761 -9.2048e-21)
(-0.132567 -0.309708 -1.15717e-20)
(-0.141278 -0.308126 -3.9828e-22)
(-0.148226 -0.302956 -1.51856e-20)
(-0.153061 -0.293 1.19266e-20)
(-0.155392 -0.276981 2.05443e-20)
(-0.154819 -0.253615 -7.90756e-21)
(-0.150963 -0.221703 3.63575e-20)
(-0.143509 -0.180258 2.33177e-21)
(-0.13225 -0.128661 -3.08796e-21)
(-0.117029 -0.0668251 6.85999e-21)
(-0.0978389 0.0044861 1.35953e-20)
(-0.0742624 0.0838925 8.17211e-21)
(0.00108791 -0.0405534 1.40377e-20)
(0.000719533 -0.106139 7.51704e-21)
(-0.00370069 -0.159166 -8.163e-21)
(-0.011234 -0.200216 -3.11231e-20)
(-0.0214411 -0.230559 2.28182e-20)
(-0.0337703 -0.252034 -1.11532e-20)
(-0.0475905 -0.266766 6.24719e-22)
(-0.0622984 -0.27685 -1.94898e-20)
(-0.0773667 -0.284077 3.98033e-21)
(-0.0923725 -0.289741 2.65131e-21)
(-0.106998 -0.294567 -6.0595e-20)
(-0.121005 -0.298744 -1.23891e-21)
(-0.134202 -0.302013 6.89416e-20)
(-0.146399 -0.303776 -3.46888e-20)
(-0.157378 -0.303186 -6.62087e-21)
(-0.166866 -0.299215 1.4994e-20)
(-0.174528 -0.290701 -3.18289e-20)
(-0.179968 -0.276389 -1.71902e-21)
(-0.182747 -0.254997 3.28266e-20)
(-0.182414 -0.225304 -1.20857e-19)
(-0.178546 -0.186277 -3.75084e-20)
(-0.170803 -0.13723 5.75391e-20)
(-0.158907 -0.0780327 2.76807e-20)
(-0.142639 -0.00934734 4.89606e-21)
(-0.122067 0.0675815 -1.22649e-20)
(0.00190104 -0.0392704 -2.85596e-20)
(0.00235827 -0.102697 -9.00448e-22)
(-0.00215196 -0.153901 -3.87377e-20)
(-0.0102873 -0.193445 5.79707e-20)
(-0.0214213 -0.222623 -6.57383e-20)
(-0.034862 -0.243284 -5.92003e-21)
(-0.0498775 -0.257535 -5.89953e-21)
(-0.0658079 -0.267432 1.07233e-20)
(-0.0821062 -0.274712 3.61212e-20)
(-0.0983568 -0.280615 -6.23703e-21)
(-0.114268 -0.285823 -1.05699e-20)
(-0.129639 -0.290501 3.95495e-20)
(-0.144317 -0.29439 -7.72615e-21)
(-0.158157 -0.296909 4.01046e-20)
(-0.17098 -0.297247 -8.0487e-20)
(-0.182547 -0.294418 -3.2986e-20)
(-0.19255 -0.287306 6.01376e-21)
(-0.200598 -0.274695 -1.11562e-19)
(-0.206236 -0.255325 3.01909e-20)
(-0.208958 -0.227972 7.25042e-20)
(-0.208257 -0.191568 -4.29762e-20)
(-0.203687 -0.145357 -1.09026e-19)
(-0.194866 -0.0891336 -5.56824e-20)
(-0.18137 -0.0234101 -9.89863e-20)
(-0.16364 0.050851 -5.27925e-20)
(0.00262774 -0.0376766 1.34162e-20)
(0.00380398 -0.0985672 -2.21035e-20)
(-0.000825731 -0.147754 7.04003e-20)
(-0.00953303 -0.185723 -5.63067e-20)
(-0.0215127 -0.21375 -1.43594e-20)
(-0.0359411 -0.233655 -3.6345e-21)
(-0.0519927 -0.247496 4.58992e-20)
(-0.0689566 -0.257269 3.23167e-20)
(-0.0862674 -0.264644 -5.79439e-20)
(-0.103516 -0.270803 2.42095e-20)
(-0.120433 -0.276386 2.07017e-21)
(-0.136848 -0.281538 -1.1081e-19)
(-0.152645 -0.286 -3.67741e-20)
(-0.167716 -0.289216 3.3526e-21)
(-0.181919 -0.290413 2.53581e-20)
(-0.195055 -0.288656 1.15175e-19)
(-0.206845 -0.282883 1.23053e-20)
(-0.216921 -0.271929 1.11553e-19)
(-0.224828 -0.254577 1.07454e-19)
(-0.230036 -0.229617 -1.32634e-20)
(-0.231976 -0.195962 5.29872e-20)
(-0.230131 -0.152791 -1.53849e-20)
(-0.224041 -0.0997858 6.31488e-20)
(-0.213092 -0.0372698 2.08453e-19)
(-0.197976 0.0341323 3.34153e-20)
(0.00324954 -0.0357939 2.22727e-20)
(0.00502305 -0.0938022 -8.10316e-20)
(0.000247091 -0.1408 1.04538e-19)
(-0.00899189 -0.177144 3.85555e-20)
(-0.0217233 -0.204042 3.05001e-20)
(-0.0370031 -0.22325 3.24712e-20)
(-0.0539215 -0.23675 -1.7154e-19)
(-0.0717213 -0.24646 6.3452e-20)
(-0.0898207 -0.253974 6.66416e-20)
(-0.107814 -0.260409 -9.88382e-20)
(-0.12545 -0.266365 1.0303e-19)
(-0.142582 -0.271967 5.71286e-20)
(-0.159122 -0.276963 6.9362e-20)
(-0.174993 -0.28082 -4.74807e-20)
(-0.190088 -0.282808 -1.04712e-20)
(-0.204242 -0.282044 2.32848e-19)
(-0.217213 -0.277525 -1.02224e-19)
(-0.228665 -0.268153 7.72968e-20)
(-0.238164 -0.252762 -1.94376e-19)
(-0.245178 -0.230179 -7.46187e-20)
(-0.249112 -0.199312 7.44512e-20)
(-0.249409 -0.159284 1.2548e-19)
(-0.245571 -0.109644 1.7088e-20)
(-0.236777 -0.050503 -1.59549e-19)
(-0.223841 0.0178671 -1.04225e-19)
(0.00375029 -0.033649 -8.65162e-20)
(0.00598675 -0.0884662 -2.75454e-20)
(0.00104081 -0.133128 -6.21185e-20)
(-0.00868023 -0.167804 -6.00551e-20)
(-0.0220584 -0.193601 4.30064e-20)
(-0.0380433 -0.212173 -7.63026e-20)
(-0.0556509 -0.225401 -4.90025e-20)
(-0.0740836 -0.235107 -2.47706e-19)
(-0.0927436 -0.242801 1.05921e-20)
(-0.111227 -0.249535 -2.06934e-21)
(-0.129291 -0.255866 -1.91286e-19)
(-0.14681 -0.261904 -6.48585e-20)
(-0.163714 -0.267402 -8.28103e-20)
(-0.179947 -0.271855 1.5841e-19)
(-0.19543 -0.27457 4.59714e-20)
(-0.210031 -0.27472 -1.28151e-19)
(-0.223542 -0.271363 -1.37075e-19)
(-0.235667 -0.263469 3.4073e-20)
(-0.246003 -0.249939 1.52904e-19)
(-0.254045 -0.22965 -2.86629e-20)
(-0.259196 -0.201525 -1.90072e-20)
(-0.260891 -0.164641 -9.41887e-20)
(-0.258629 -0.11841 -1.11369e-19)
(-0.251382 -0.0627205 9.25511e-20)
(-0.239892 0.00247343 6.57539e-20)
(0.00411673 -0.0312733 4.54522e-20)
(0.00667205 -0.0826304 5.3361e-20)
(0.00153574 -0.12483 -4.17316e-20)
(-0.00860942 -0.157811 -8.62138e-20)
(-0.0225201 -0.182536 1.34242e-20)
(-0.0390554 -0.200529 1.01463e-19)
(-0.0571687 -0.21355 1.46353e-19)
(-0.0760272 -0.223309 1.99375e-19)
(-0.095018 -0.231225 3.42198e-20)
(-0.113735 -0.238282 4.63631e-20)
(-0.131942 -0.244997 5.66088e-20)
(-0.14952 -0.251465 2.14752e-19)
(-0.166411 -0.257446 -1.24212e-20)
(-0.182573 -0.262459 -2.75276e-19)
(-0.197944 -0.26585 1.9689e-19)
(-0.212415 -0.266841 7.66098e-20)
(-0.225812 -0.264552 2.50091e-19)
(-0.237874 -0.25802 -1.05582e-19)
(-0.248245 -0.24622 -1.13511e-19)
(-0.256456 -0.228089 3.19616e-19)
(-0.261933 -0.202584 -1.01513e-19)
(-0.264124 -0.168755 -1.55898e-19)
(-0.262563 -0.125875 -3.3802e-20)
(-0.256006 -0.0735965 -1.15728e-19)
(-0.244849 -0.0116959 2.51306e-20)
(0.0043388 -0.0287016 1.12182e-20)
(0.00706224 -0.0763728 -2.12533e-20)
(0.00171887 -0.116007 4.37119e-21)
(-0.00878513 -0.147273 -1.55138e-19)
(-0.023106 -0.170957 -1.21e-19)
(-0.0400306 -0.188426 -2.30074e-20)
(-0.0584611 -0.201298 -5.86239e-20)
(-0.0775359 -0.211162 -1.08224e-19)
(-0.0966278 -0.21934 -2.51469e-20)
(-0.115326 -0.226747 -1.17012e-20)
(-0.133392 -0.23386 -1.1393e-19)
(-0.15071 -0.240761 4.84314e-20)
(-0.167222 -0.247217 3.75213e-20)
(-0.182892 -0.25277 2.00197e-19)
(-0.197663 -0.2568 -7.22341e-21)
(-0.211444 -0.258575 -1.21022e-19)
(-0.22408 -0.25727 -1.4432e-20)
(-0.235348 -0.251987 4.72357e-20)
(-0.244931 -0.241771 2.02997e-19)
(-0.25241 -0.225632 -1.56123e-19)
(-0.257248 -0.202572 3.77203e-19)
(-0.258907 -0.171637 1.51143e-19)
(-0.256977 -0.131978 -1.00366e-19)
(-0.250078 -0.0829928 2.07948e-19)
(-0.237802 -0.0244227 1.05668e-19)
(0.00440999 -0.0259717 1.2854e-20)
(0.00714746 -0.0697758 6.84766e-20)
(0.00158443 -0.106763 1.93677e-19)
(-0.00920659 -0.136301 2.42687e-19)
(-0.0238088 -0.158974 1.44093e-19)
(-0.0409559 -0.175967 -1.00892e-19)
(-0.0595117 -0.188743 2.4682e-19)
(-0.0785912 -0.198759 2.77962e-20)
(-0.0975543 -0.207236 -1.47823e-19)
(-0.115982 -0.21502 1.66483e-20)
(-0.133631 -0.22255 2.73098e-19)
(-0.150377 -0.229894 -2.91291e-19)
(-0.166159 -0.236828 -1.65199e-19)
(-0.180934 -0.242914 -3.42294e-20)
(-0.194644 -0.247565 -2.69827e-19)
(-0.207201 -0.250086 -1.72401e-19)
(-0.218464 -0.2497 2.86018e-20)
(-0.228235 -0.245568 -3.48178e-19)
(-0.236233 -0.2368 2.7119e-20)
(-0.242086 -0.222476 -1.57822e-19)
(-0.245302 -0.201661 -1.90477e-19)
(-0.245353 -0.173425 1.57762e-19)
(-0.241891 -0.136822 1.72668e-19)
(-0.233523 -0.0909789 -1.21892e-19)
(-0.218388 -0.0356705 1.48298e-19)
(0.0043275 -0.0231236 -1.60057e-19)
(0.00692501 -0.0629257 1.17821e-19)
(0.00113435 -0.0972057 -9.21175e-21)
(-0.00986612 -0.125011 4.69257e-20)
(-0.0246154 -0.146697 4.45044e-20)
(-0.0418136 -0.163257 2.01846e-19)
(-0.060299 -0.175981 -1.46612e-19)
(-0.0791697 -0.186188 -2.72944e-19)
(-0.0977737 -0.194997 1.3668e-19)
(-0.115682 -0.203185 1.27722e-19)
(-0.13264 -0.211152 -4.30759e-19)
(-0.148513 -0.218956 3.02507e-19)
(-0.163226 -0.226379 4.5602e-19)
(-0.176724 -0.233005 2.97596e-20)
(-0.188938 -0.238272 -7.66914e-20)
(-0.199776 -0.24152 2.23511e-19)
(-0.2091 -0.242012 -1.01202e-19)
(-0.216725 -0.238956 4.4233e-19)
(-0.222399 -0.231521 -3.78556e-19)
(-0.225791 -0.218854 6.64303e-20)
(-0.226454 -0.200088 -3.18147e-20)
(-0.223862 -0.174344 -1.04899e-19)
(-0.217701 -0.140634 -9.50858e-20)
(-0.206836 -0.0977834 7.29328e-20)
(-0.186998 -0.0456284 -5.55577e-21)
(0.00409236 -0.0201983 1.03689e-19)
(0.00639954 -0.0559103 -7.54844e-20)
(0.000378446 -0.0874441 6.16161e-20)
(-0.0107487 -0.113514 -2.10595e-19)
(-0.0255059 -0.134237 -4.69876e-20)
(-0.0425797 -0.150396 2.34104e-20)
(-0.0607954 -0.163102 -5.328e-20)
(-0.0792406 -0.173534 -8.81866e-20)
(-0.0972529 -0.182702 2.74598e-20)
(-0.114391 -0.191315 -1.48404e-19)
(-0.130387 -0.199738 2.76741e-19)
(-0.145089 -0.208019 -6.38073e-20)
(-0.158404 -0.215948 -1.6185e-19)
(-0.170258 -0.223126 -1.63679e-19)
(-0.180568 -0.229018 2.13103e-19)
(-0.189227 -0.232991 1.09914e-19)
(-0.196095 -0.23434 4.46009e-20)
(-0.200991 -0.232313 -3.59758e-19)
(-0.203683 -0.226125 3.58683e-19)
(-0.203872 -0.214984 -1.09846e-19)
(-0.20116 -0.198093 -4.97878e-20)
(-0.195018 -0.174648 -3.02203e-20)
(-0.185099 -0.143702 -2.9688e-20)
(-0.170964 -0.103779 1.05152e-19)
(-0.144675 -0.0546616 -1.55902e-19)
(0.00370942 -0.0172376 -3.86225e-20)
(0.00558306 -0.0488183 1.66536e-19)
(-0.000665512 -0.0775868 -2.39898e-19)
(-0.0118318 -0.101924 9.64652e-20)
(-0.0264537 -0.121702 5.2914e-20)
(-0.0432235 -0.137483 -8.06547e-20)
(-0.0609661 -0.150197 2.35907e-19)
(-0.0787646 -0.160874 5.77633e-20)
(-0.0959476 -0.170421 2.62452e-20)
(-0.112061 -0.179477 2.31267e-19)
(-0.126819 -0.188372 -9.4559e-20)
(-0.140049 -0.197145 9.85869e-20)
(-0.151637 -0.205594 -1.05145e-19)
(-0.161487 -0.213338 -6.36664e-21)
(-0.169495 -0.219865 -1.1143e-19)
(-0.175541 -0.224565 -3.7699e-19)
(-0.179474 -0.226763 7.52647e-20)
(-0.181115 -0.225734 2.8057e-19)
(-0.180245 -0.220732 -9.63561e-20)
(-0.176591 -0.211014 4.23868e-19)
(-0.169808 -0.19585 -2.20291e-19)
(-0.159387 -0.174526 -5.2285e-20)
(-0.144808 -0.146224 -7.80101e-20)
(-0.127008 -0.109244 -2.38667e-21)
(-0.0927122 -0.0631054 -5.77944e-20)
(0.00318726 -0.0142829 -1.14015e-19)
(0.00449473 -0.0417373 -1.72073e-19)
(-0.00197193 -0.0677412 -9.25406e-20)
(-0.0130854 -0.0903539 8.69628e-20)
(-0.0274249 -0.109197 2.71796e-20)
(-0.043707 -0.124616 1.58168e-20)
(-0.0607679 -0.137351 6.03002e-20)
(-0.0776918 -0.148287 -2.94133e-19)
(-0.0937999 -0.158221 9.68585e-20)
(-0.108623 -0.167729 -2.01473e-19)
(-0.121857 -0.177104 -7.21173e-20)
(-0.133305 -0.186377 -9.80022e-20)
(-0.142826 -0.195354 -2.04189e-19)
(-0.150302 -0.20367 4.14612e-19)
(-0.155608 -0.210834 2.30035e-19)
(-0.158605 -0.216259 6.23859e-20)
(-0.159137 -0.219292 1.83756e-19)
(-0.157024 -0.219231 -2.53697e-19)
(-0.15206 -0.21536 -5.99174e-20)
(-0.144001 -0.206973 -2.60091e-19)
(-0.132553 -0.193402 9.70564e-20)
(-0.117288 -0.17402 1.85798e-19)
(-0.0972666 -0.148225 8.10445e-20)
(-0.075746 -0.11428 -1.21804e-19)
(-0.0327026 -0.0708728 1.27727e-19)
(0.002538 -0.0113745 -4.01129e-20)
(0.00316051 -0.0347529 1.02686e-20)
(-0.0035078 -0.0580127 1.16693e-19)
(-0.0144723 -0.0789114 2.08864e-19)
(-0.0283791 -0.0968279 -1.40156e-19)
(-0.0439853 -0.111888 1.35257e-19)
(-0.0601498 -0.124648 -1.06409e-19)
(-0.0759626 -0.135843 4.02756e-19)
(-0.0907386 -0.146166 -2.82209e-19)
(-0.103993 -0.156124 6.07855e-20)
(-0.115398 -0.165977 2.60515e-19)
(-0.12473 -0.175747 -3.53432e-20)
(-0.131823 -0.185245 2.72689e-20)
(-0.136529 -0.194125 -3.36162e-19)
(-0.138704 -0.201912 -2.78891e-19)
(-0.138194 -0.208041 -1.14609e-20)
(-0.134836 -0.211874 -2.90139e-19)
(-0.128456 -0.21273 9.68845e-20)
(-0.11887 -0.209913 -1.37446e-19)
(-0.105865 -0.202749 1.59276e-19)
(-0.0891986 -0.190618 -1.99708e-19)
(-0.0686369 -0.172976 9.47697e-20)
(-0.0424349 -0.149467 -7.05919e-20)
(-0.0169769 -0.118819 9.38541e-20)
(0.0347085 -0.0775378 -9.58439e-21)
(0.00177698 -0.00855095 2.21491e-19)
(0.0016126 -0.0279473 5.60388e-20)
(-0.00523325 -0.0485027 -1.2918e-19)
(-0.0159488 -0.0677031 -1.55536e-19)
(-0.029269 -0.0846956 1.0505e-19)
(-0.044007 -0.0993938 -3.86542e-19)
(-0.059053 -0.11217 5.51547e-19)
(-0.0735075 -0.123615 1.07306e-19)
(-0.0866795 -0.134315 1.78032e-19)
(-0.0980663 -0.144711 2.16879e-19)
(-0.107314 -0.155029 1.35764e-19)
(-0.11417 -0.165277 -1.0052e-19)
(-0.118435 -0.175277 -2.7465e-21)
(-0.119936 -0.18469 -4.8695e-20)
(-0.118506 -0.193061 -1.3979e-19)
(-0.113978 -0.199839 3.04057e-19)
(-0.106188 -0.204402 5.93767e-19)
(-0.0949767 -0.206082 2.67464e-20)
(-0.0801902 -0.204199 1.79913e-19)
(-0.0616637 -0.198102 -8.71971e-20)
(-0.0391923 -0.187209 9.93997e-20)
(-0.0129255 -0.171053 -5.11792e-19)
(0.0200309 -0.149371 2.04612e-19)
(0.0500987 -0.122159 1.07074e-19)
(0.110375 -0.0831495 -5.63029e-20)
(0.000922389 -0.00584828 -1.33078e-19)
(-0.000111305 -0.0213981 -2.3077e-19)
(-0.00710241 -0.0393082 2.21873e-19)
(-0.0174653 -0.0568311 1.4606e-19)
(-0.0300422 -0.0728993 7.87869e-20)
(-0.0437148 -0.0872236 2.79382e-19)
(-0.0574126 -0.0999985 -2.90318e-19)
(-0.0702494 -0.111673 -2.68005e-19)
(-0.0815282 -0.12273 -1.75983e-19)
(-0.0907259 -0.13354 -4.11826e-19)
(-0.0974594 -0.144295 7.89527e-20)
(-0.101441 -0.154991 -3.20103e-20)
(-0.102438 -0.16545 5.72716e-19)
(-0.100247 -0.175345 2.3264e-19)
(-0.0946793 -0.184232 1.63281e-19)
(-0.0855579 -0.191569 -5.32577e-20)
(-0.0727249 -0.196747 -2.76606e-19)
(-0.0560454 -0.199105 -2.10402e-19)
(-0.0354106 -0.197976 -2.26669e-19)
(-0.0107257 -0.192726 1.53509e-19)
(0.0182098 -0.182805 2.54728e-19)
(0.0507069 -0.167913 2.5084e-19)
(0.0908047 -0.14735 -2.02976e-19)
(0.125547 -0.12306 6.80884e-20)
(0.196138 -0.0869852 6.95616e-20)
(-5.27732e-06 -0.00329932 -3.49901e-19)
(-0.00196891 -0.015177 1.9583e-19)
(-0.00906439 -0.0305202 -3.36589e-19)
(-0.0189673 -0.0463928 4.14788e-19)
(-0.0306417 -0.0615347 -3.97789e-19)
(-0.0430472 -0.0754673 -1.19445e-19)
(-0.0551586 -0.0882158 -2.22943e-19)
(-0.0661054 -0.100091 1.25451e-19)
(-0.0751835 -0.111471 -2.14791e-19)
(-0.0818463 -0.122662 2.34012e-19)
(-0.0856768 -0.133814 -3.05973e-19)
(-0.0863488 -0.144911 -2.24753e-19)
(-0.0835924 -0.155771 8.4816e-21)
(-0.0771716 -0.166073 -3.32571e-19)
(-0.0668762 -0.175377 9.23461e-21)
(-0.0525252 -0.18315 -3.15998e-19)
(-0.0339754 -0.188783 -2.00927e-20)
(-0.0111317 -0.191623 -3.12597e-19)
(0.0160494 -0.19101 1.03913e-19)
(0.0475524 -0.18633 3.98919e-19)
(0.0835706 -0.177042 -3.52316e-19)
(0.122868 -0.163054 1.47134e-19)
(0.170844 -0.143042 1.35808e-19)
(0.209544 -0.120818 -5.59027e-20)
(0.292011 -0.0874654 1.64265e-20)
(-0.000983779 -0.000933014 1.8128e-19)
(-0.00391439 -0.00934877 -5.12712e-20)
(-0.0110644 -0.0222228 1.14082e-19)
(-0.0203968 -0.0364804 -3.33923e-19)
(-0.031007 -0.0506944 5.36851e-19)
(-0.0419395 -0.0642132 3.51108e-20)
(-0.0522187 -0.0769029 3.90159e-19)
(-0.0609904 -0.0889409 -2.03838e-19)
(-0.0675417 -0.100605 1.38122e-19)
(-0.0712996 -0.112131 1.81633e-19)
(-0.071809 -0.123632 1.6468e-19)
(-0.0687011 -0.135069 5.18157e-19)
(-0.0616655 -0.146255 -1.29248e-19)
(-0.0504342 -0.156868 -1.27581e-19)
(-0.0347797 -0.166468 -9.50401e-20)
(-0.0145254 -0.174522 -5.78835e-21)
(0.0104413 -0.18042 -1.83591e-19)
(0.0401524 -0.183508 1.60911e-19)
(0.0745583 -0.183134 -1.94032e-19)
(0.113484 -0.178699 6.68422e-20)
(0.157126 -0.169637 -8.87715e-20)
(0.203434 -0.156178 1.01184e-20)
(0.259837 -0.136261 -3.14075e-19)
(0.301973 -0.115592 3.37301e-20)
(0.396506 -0.0837142 6.72353e-21)
(-0.00198977 0.00122606 2.42205e-19)
(-0.0058996 -0.00397025 -1.64596e-19)
(-0.0130452 -0.0144919 -1.16713e-19)
(-0.0216932 -0.0271792 -7.07281e-20)
(-0.0310758 -0.0404664 -2.32436e-19)
(-0.0403258 -0.0535476 -3.93853e-19)
(-0.0485196 -0.0661419 -1.288e-19)
(-0.0548191 -0.0782997 4.40992e-19)
(-0.0585011 -0.0902005 -1.37353e-19)
(-0.0589627 -0.10201 -2.97098e-19)
(-0.0557074 -0.1138 -1.79709e-19)
(-0.0483214 -0.125506 -5.29895e-19)
(-0.0364535 -0.136931 -5.69137e-19)
(-0.0198075 -0.147744 4.20357e-19)
(0.00185155 -0.157502 8.30113e-20)
(0.028679 -0.165664 6.70471e-20)
(0.0607301 -0.171615 6.44901e-19)
(0.0979383 -0.1747 9.03198e-20)
(0.140122 -0.17427 5.32077e-19)
(0.18688 -0.169764 -5.81279e-19)
(0.238403 -0.160544 2.48155e-19)
(0.29166 -0.147369 -1.85847e-19)
(0.356192 -0.126989 2.47517e-19)
(0.401355 -0.107681 -3.16115e-19)
(0.506327 -0.07609 5.07186e-20)
(-0.00299952 0.0031583 -6.09668e-20)
(-0.00787524 0.000910814 -1.31658e-19)
(-0.014948 -0.00739446 -1.22381e-19)
(-0.022795 -0.0185673 4.17286e-20)
(-0.0307849 -0.0309337 -6.63816e-20)
(-0.0381401 -0.0435541 2.49189e-19)
(-0.043989 -0.056014 -9.00055e-20)
(-0.0475095 -0.0682444 -1.89846e-19)
(-0.0479658 -0.080329 -7.76013e-20)
(-0.0447228 -0.0923647 3.56077e-21)
(-0.0372413 -0.104376 4.94143e-19)
(-0.0250624 -0.116273 -4.29265e-19)
(-0.00779857 -0.127838 6.15045e-19)
(0.0148641 -0.138731 -1.73282e-19)
(0.04315 -0.148497 -2.90877e-19)
(0.0771642 -0.156586 2.39666e-19)
(0.116865 -0.162373 -2.45343e-19)
(0.162035 -0.165205 -3.90449e-19)
(0.212303 -0.164441 -1.37181e-19)
(0.266976 -0.159591 1.08425e-19)
(0.326166 -0.149891 1.57274e-19)
(0.385907 -0.136799 2.64595e-19)
(0.457278 -0.115688 3.88647e-21)
(0.505034 -0.0975151 1.32735e-19)
(0.616816 -0.0657089 -2.70811e-20)
(-0.00398975 0.00484943 -3.00854e-20)
(-0.00979224 0.00525647 2.88628e-19)
(-0.0167142 -0.000987067 2.9909e-19)
(-0.0236404 -0.010714 -1.34588e-19)
(-0.0300714 -0.0221727 9.47739e-20)
(-0.0353171 -0.0343124 -3.55108e-19)
(-0.0385572 -0.0465991 7.08098e-20)
(-0.0389841 -0.0588528 5.69371e-20)
(-0.0358481 -0.0710652 -1.6744e-19)
(-0.0284814 -0.0832637 -4.62686e-20)
(-0.0163029 -0.0954243 -6.22071e-19)
(0.00118627 -0.107426 1.94713e-19)
(0.0243997 -0.119028 -2.86562e-20)
(0.0536503 -0.129873 -9.45284e-21)
(0.0891215 -0.139493 -2.61211e-20)
(0.130827 -0.147323 1.47742e-21)
(0.178571 -0.152735 -1.48196e-20)
(0.23192 -0.155082 2.74301e-19)
(0.290239 -0.153742 -2.14627e-19)
(0.352479 -0.148327 1.84914e-19)
(0.418549 -0.137945 -2.37305e-19)
(0.483825 -0.124748 -1.00324e-19)
(0.559785 -0.103017 1.56962e-20)
(0.609571 -0.0856586 -1.24511e-19)
(0.723022 -0.0538984 -3.14289e-20)
(-0.00493823 0.00629068 -2.88256e-19)
(-0.011603 0.00903921 -3.62598e-20)
(-0.0182864 0.0046849 -3.71042e-19)
(-0.0241683 -0.00367845 -2.99519e-19)
(-0.0288731 -0.0142524 3.98619e-19)
(-0.0317931 -0.0258967 2.73988e-19)
(-0.032157 -0.0379735 -1.21309e-19)
(-0.0291704 -0.0502009 -1.0976e-19)
(-0.0220696 -0.0624826 -8.15208e-20)
(-0.0101552 -0.0747773 7.02316e-19)
(0.00718982 -0.0870097 2.66893e-19)
(0.0304953 -0.099024 3.7511e-19)
(0.060182 -0.110552 -2.09757e-20)
(0.0965324 -0.121216 6.63493e-20)
(0.139646 -0.130529 1.84775e-19)
(0.189389 -0.137918 -4.22953e-19)
(0.24534 -0.142754 6.37939e-19)
(0.306773 -0.144409 5.93499e-20)
(0.372707 -0.142296 -1.81739e-19)
(0.441698 -0.136154 -2.47255e-19)
(0.513281 -0.125031 -1.22977e-19)
(0.582638 -0.11156 2.20036e-19)
(0.660291 -0.0896241 -9.96452e-21)
(0.711219 -0.0727588 8.24083e-20)
(0.820709 -0.0417721 8.2482e-20)
(-0.00582452 0.00747885 2.20095e-19)
(-0.0132625 0.0122423 2.32427e-20)
(-0.0196092 0.0095881 -5.08845e-20)
(-0.0243194 0.00249114 5.24539e-20)
(-0.0271287 -0.00723208 -3.79702e-19)
(-0.0275053 -0.0183735 5.08878e-19)
(-0.0247232 -0.0302075 -8.65852e-22)
(-0.0180002 -0.0423596 4.17075e-19)
(-0.00656004 -0.0546505 1.77521e-20)
(0.0103248 -0.0669707 -1.41425e-19)
(0.0332962 -0.0791912 2.22739e-19)
(0.0628991 -0.0911198 -7.43679e-19)
(0.0995336 -0.102455 -4.50978e-19)
(0.143411 -0.112796 -2.18944e-19)
(0.194491 -0.121639 -9.06627e-20)
(0.252419 -0.128404 6.84077e-21)
(0.316472 -0.132472 -4.16912e-19)
(0.385543 -0.133255 1.46777e-19)
(0.458232 -0.130222 5.25412e-19)
(0.53269 -0.123248 1.34348e-19)
(0.607944 -0.111456 2.79731e-19)
(0.679456 -0.0976117 -2.41875e-19)
(0.755721 -0.0760162 -4.36378e-20)
(0.80646 -0.0594781 -7.2551e-20)
(0.906944 -0.0300602 -3.04868e-19)
(-0.00663053 0.00841622 -2.07482e-19)
(-0.014729 0.0148599 1.05343e-19)
(-0.02063 0.0137018 1.88025e-19)
(-0.0240356 0.00775916 6.58398e-19)
(-0.0247776 -0.00115955 2.49056e-19)
(-0.0223909 -0.0117996 -5.55533e-19)
(-0.0161911 -0.0233626 -1.40966e-19)
(-0.00540735 -0.0353915 -7.3468e-20)
(0.0107461 -0.0476291 -2.44799e-19)
(0.0330166 -0.0598972 -7.98277e-20)
(0.0620594 -0.0720181 -1.64866e-19)
(0.098403 -0.083751 5.95709e-19)
(0.142394 -0.0947632 6.99734e-19)
(0.194119 -0.104628 3.44078e-19)
(0.253328 -0.112829 -1.73396e-19)
(0.319363 -0.118786 -1.15673e-19)
(0.391111 -0.121907 2.4338e-19)
(0.467012 -0.121664 -4.7687e-20)
(0.545187 -0.11762 -3.73282e-21)
(0.62341 -0.109771 9.92353e-20)
(0.700171 -0.0974715 -1.35174e-19)
(0.771563 -0.0832816 -2.00589e-19)
(0.8436 -0.0625501 -1.105e-19)
(0.892473 -0.046394 1.34955e-19)
(0.980481 -0.0190938 3.46494e-19)
(-0.00734101 0.00911019 1.65755e-19)
(-0.0159652 0.0168969 5.67228e-19)
(-0.0212993 0.0170184 2.27854e-19)
(-0.0232605 0.0121036 -2.01838e-19)
(-0.0217586 0.00393041 2.83761e-19)
(-0.0163856 -0.00621883 3.14016e-19)
(-0.0064935 -0.0174875 3.53769e-19)
(0.00867685 -0.029346 -1.93975e-20)
(0.0299159 -0.0414639 2.79302e-19)
(0.057976 -0.0535981 -8.60155e-19)
(0.0935086 -0.0655174 4.851e-19)
(0.136993 -0.0769301 -2.54318e-19)
(0.188669 -0.0874733 -6.33738e-19)
(0.248434 -0.0966951 -4.48014e-19)
(0.315747 -0.10407 7.12631e-19)
(0.389559 -0.109033 -2.35166e-19)
(0.46828 -0.111043 -1.0963e-19)
(0.549841 -0.109655 7.70636e-20)
(0.631872 -0.104562 -3.74004e-19)
(0.711836 -0.0958741 2.67705e-19)
(0.787797 -0.0832783 -3.78265e-20)
(0.856663 -0.0689186 2.56978e-19)
(0.922149 -0.0494814 2.54451e-19)
(0.967372 -0.0339522 -7.50297e-20)
(1.04063 -0.00940522 -1.21426e-19)
(-0.00794375 0.00957275 -8.67144e-20)
(-0.0169382 0.0183681 -3.21431e-19)
(-0.0215711 0.0195434 8.54939e-21)
(-0.0219382 0.0155169 -1.6381e-19)
(-0.0180089 0.00801834 -4.85772e-19)
(-0.00942075 -0.0016593 -2.52858e-19)
(0.00444245 -0.0126147 1.39363e-19)
(0.0243272 -0.0242553 -4.36443e-19)
(0.0510204 -0.0361822 3.43466e-20)
(0.0852644 -0.0480895 2.13977e-19)
(0.127673 -0.0596867 -6.15481e-19)
(0.17864 -0.0706392 -2.01658e-19)
(0.238234 -0.0805475 5.06978e-19)
(0.306084 -0.0889402 3.33573e-19)
(0.381269 -0.0952948 -4.21724e-19)
(0.462253 -0.0990831 4.34149e-19)
(0.546902 -0.0998373 1.73958e-19)
(0.632617 -0.0972286 -3.81625e-20)
(0.716588 -0.0911142 -3.57936e-20)
(0.796079 -0.0817084 -2.9356e-19)
(0.868968 -0.0690596 2.87905e-20)
(0.933042 -0.0548206 -3.98516e-20)
(0.990327 -0.0370048 -2.04766e-19)
(1.03037 -0.0224063 -1.37689e-19)
(1.08835 -0.000801316 -1.11339e-19)
(-0.0084297 0.00981975 -5.47753e-20)
(-0.0176195 0.0192978 -7.182e-19)
(-0.0214016 0.0212949 -4.45157e-19)
(-0.0200125 0.018007 -5.70168e-19)
(-0.0134616 0.0111017 5.05911e-19)
(-0.00142072 0.00186913 4.0424e-20)
(0.0166994 -0.00875685 3.70846e-19)
(0.0416301 -0.0201287 -3.40068e-19)
(0.0741431 -0.031784 5.66957e-19)
(0.114949 -0.0433552 2.12169e-19)
(0.164587 -0.0544942 1.65823e-20)
(0.223308 -0.0648217 -3.24731e-20)
(0.290939 -0.0739064 -1.13674e-19)
(0.366748 -0.0812667 -9.98718e-20)
(0.449332 -0.0864017 9.69823e-20)
(0.536592 -0.0888449 1.32676e-19)
(0.62581 -0.0882368 -8.24637e-19)
(0.713889 -0.0843929 4.65156e-20)
(0.797699 -0.0773539 -1.20367e-19)
(0.874485 -0.0674347 -1.01218e-19)
(0.942245 -0.0550003 4.4705e-20)
(0.999655 -0.0412267 -2.65265e-19)
(1.04781 -0.0252709 1.01886e-19)
(1.08165 -0.0118615 1.1306e-19)
(1.12496 0.00677214 -2.48698e-19)
(-0.00879278 0.00987005 1.2851e-19)
(-0.0179847 0.0197177 5.20481e-19)
(-0.0207492 0.0223035 4.45858e-20)
(-0.0174256 0.0195971 8.29724e-19)
(-0.0080442 0.0131961 -5.2871e-19)
(0.00770008 0.00437736 5.20724e-19)
(0.0303736 -0.00590262 -4.68843e-19)
(0.0606875 -0.0169482 1.85117e-19)
(0.0993834 -0.0282387 -2.39692e-19)
(0.14711 -0.0393459 3.16281e-19)
(0.204286 -0.0498668 5.21975e-19)
(0.270949 -0.0593797 2.6733e-19)
(0.346597 -0.0674299 1.06831e-19)
(0.430034 -0.0735424 1.16067e-19)
(0.519286 -0.0772634 -8.19802e-20)
(0.611626 -0.0782219 -6.84782e-20)
(0.703767 -0.0762001 6.66517e-19)
(0.792215 -0.0711807 2.04936e-19)
(0.873717 -0.0633888 5.29002e-19)
(0.945733 -0.0532282 1.48538e-20)
(1.00668 -0.0412876 -2.75186e-19)
(1.05613 -0.0283204 3.2278e-19)
(1.09493 -0.0143831 3.59147e-19)
(1.1221 -0.00229022 3.86908e-20)
(1.15207 0.01346 2.42699e-19)
(-0.00902944 0.00974443 -3.65136e-19)
(-0.018013 0.0196665 2.0261e-19)
(-0.0195728 0.0226107 4.46269e-19)
(-0.0141163 0.0203259 -1.7578e-19)
(-0.00167622 0.0143368 -5.27293e-19)
(0.0180398 0.00589958 -3.94513e-20)
(0.0455775 -0.0040136 2.86953e-20)
(0.0816202 -0.0146655 5.176e-20)
(0.126858 -0.0254808 -3.32061e-19)
(0.181839 -0.0359739 -1.4048e-19)
(0.246801 -0.0456906 -4.87074e-19)
(0.321488 -0.0541743 -1.11379e-20)
(0.404963 -0.0609622 -1.31942e-19)
(0.495466 -0.0656108 -3.85082e-20)
(0.590369 -0.0677471 3.29646e-19)
(0.686308 -0.0671318 -4.67682e-19)
(0.779499 -0.0637182 1.88297e-19)
(0.866236 -0.057666 -2.79803e-19)
(0.943395 -0.0493622 -3.86433e-19)
(1.00891 -0.0392729 7.26132e-20)
(1.06187 -0.0280958 6.063e-19)
(1.1027 -0.0162318 -2.8096e-19)
(1.13253 -0.00438049 1.89377e-20)
(1.15308 0.00645414 2.06124e-19)
(1.17137 0.0193931 1.06055e-19)
(-0.00913804 0.0094648 1.71944e-19)
(-0.0176854 0.0191873 -2.44652e-19)
(-0.017831 0.0222678 -5.1993e-19)
(-0.0100185 0.020247 -2.76971e-19)
(0.00573254 0.0145785 3.04033e-19)
(0.0297106 0.00649448 1.03667e-19)
(0.0624411 -0.00302261 6.10313e-19)
(0.104567 -0.0131986 2.48468e-19)
(0.156698 -0.0234077 1.57263e-19)
(0.219231 -0.0331113 7.30474e-20)
(0.29215 -0.0418118 5.03135e-19)
(0.374804 -0.0490318 2.24659e-19)
(0.465714 -0.0543238 -1.82358e-19)
(0.562457 -0.0573091 2.56826e-19)
(0.66171 -0.0577352 -1.4246e-19)
(0.759515 -0.0555288 1.71823e-19)
(0.851756 -0.0508307 -1.59886e-19)
(0.934757 -0.0439677 -3.26777e-19)
(1.00581 -0.0354448 4.40743e-19)
(1.06354 -0.0257465 -4.27201e-19)
(1.1079 -0.0155686 1.1426e-19)
(1.1401 -0.00503855 -1.17756e-19)
(1.16182 0.00478035 -8.12673e-20)
(1.17611 0.014533 -6.10071e-19)
(1.18468 0.0243001 9.76376e-20)
(-0.00911818 0.00905301 3.50313e-20)
(-0.0169839 0.0183263 1.75581e-19)
(-0.01548 0.0213343 5.8366e-19)
(-0.0050599 0.019428 -1.37853e-19)
(0.0142831 0.0139956 -6.02941e-20)
(0.0428398 0.00624548 1.12462e-19)
(0.0811112 -0.00283257 1.00696e-19)
(0.129681 -0.0124313 -3.98857e-19)
(0.189041 -0.0218792 -1.85179e-19)
(0.259372 -0.0305923 -5.70649e-19)
(0.340311 -0.0380426 -4.28559e-19)
(0.430703 -0.0437539 -3.02345e-19)
(0.528417 -0.047327 2.62665e-19)
(0.630296 -0.0484889 -3.78041e-19)
(0.732332 -0.0471467 -1.74991e-19)
(0.830101 -0.0434188 -7.48689e-20)
(0.919386 -0.0376301 -5.08656e-20)
(0.996834 -0.0302416 9.80077e-19)
(1.06041 -0.0218158 5.61308e-20)
(1.10963 -0.0128016 -8.02785e-20)
(1.14531 -0.00380577 -3.90987e-19)
(1.16937 0.00524216 1.18256e-19)
(1.18408 0.0132156 4.11245e-21)
(1.19266 0.0218834 3.62572e-19)
(1.19408 0.0276259 4.61574e-20)
(-0.00896966 0.00852999 2.78784e-19)
(-0.0158899 0.0171312 -2.68086e-19)
(-0.0124728 0.0198763 -4.078e-19)
(0.000838988 0.0179485 4.10492e-19)
(0.0240873 0.0126809 -9.24958e-20)
(0.0575678 0.0052602 -8.05038e-20)
(0.101748 -0.00331716 6.9845e-20)
(0.157124 -0.0122145 -1.0052e-19)
(0.224017 -0.020721 2.5256e-19)
(0.302314 -0.0282192 1.64033e-19)
(0.391197 -0.0341714 4.20417e-19)
(0.488891 -0.0381336 -1.02511e-20)
(0.592515 -0.0397963 3.31916e-19)
(0.698152 -0.0390364 -2.33861e-20)
(0.801194 -0.0359538 3.32664e-19)
(0.896962 -0.0308654 8.99406e-20)
(0.981424 -0.0242543 -5.77806e-19)
(1.05184 -0.0166621 -2.66917e-19)
(1.10706 -0.00864063 -6.04177e-20)
(1.14754 -0.000550474 1.51674e-19)
(1.17494 0.00714331 -6.99253e-20)
(1.19173 0.0146614 -2.19601e-19)
(1.20059 0.0210272 2.92349e-20)
(1.20414 0.0281717 -1.67701e-19)
(1.20346 0.0318709 -7.49463e-20)
(-0.00869161 0.00791496 1.70872e-19)
(-0.0143826 0.0156493 1.82426e-19)
(-0.00875725 0.017964 3.34801e-19)
(0.00776525 0.0158989 -2.44192e-19)
(0.0352671 0.0107436 1.75844e-20)
(0.0740452 0.00366859 4.92674e-19)
(0.124516 -0.0043231 -1.4165e-19)
(0.187052 -0.0123694 -4.73768e-19)
(0.261734 -0.01973 -2.80512e-19)
(0.348057 -0.0257718 3.74901e-19)
(0.444633 -0.0299763 -7.73831e-19)
(0.54895 -0.0319725 4.28429e-21)
(0.657318 -0.0315878 -6.25613e-20)
(0.765098 -0.0288895 4.68112e-19)
(0.867253 -0.0241887 -2.39592e-19)
(0.959119 -0.0179847 3.24858e-19)
(1.03716 -0.0108696 3.11141e-19)
(1.0995 -0.00340014 -5.20385e-19)
(1.14598 0.00394784 -2.0542e-19)
(1.17798 0.0109428 -1.56849e-19)
(1.19783 0.0172817 2.29794e-19)
(1.20841 0.0233176 3.32661e-19)
(1.21244 0.0282024 1.39302e-19)
(1.21241 0.0338982 -1.17286e-19)
(1.20986 0.0362611 -2.00404e-19)
(-0.00828153 0.00722488 -4.03568e-20)
(-0.0124374 0.0139266 1.70481e-19)
(-0.00427612 0.0156708 -3.393e-19)
(0.015813 0.0133777 -5.22195e-19)
(0.0479513 0.0083072 -7.77048e-19)
(0.0924273 0.00161988 1.32143e-19)
(0.14958 -0.00567428 -1.57374e-19)
(0.219602 -0.012694 2.31095e-19)
(0.302252 -0.0186835 8.63595e-20)
(0.396522 -0.02302 1.64852e-19)
(0.500328 -0.0252421 1.83918e-19)
(0.610332 -0.0251003 -9.81738e-20)
(0.722023 -0.022606 -1.42136e-19)
(0.830162 -0.0180467 -3.08299e-19)
(0.92953 -0.0119407 9.45752e-20)
(1.01579 -0.00492942 -3.37391e-19)
(1.0862 0.00235111 1.23902e-19)
(1.13987 0.00939727 7.56143e-20)