/*--------------------------------*- C++ -*----------------------------------*\
  =========                 |
  \\      /  F ield         | OpenFOAM: The Open Source CFD Toolbox
   \\    /   O peration     | Website:  https://openfoam.org
    \\  /    A nd           | Version:  7
     \\/     M anipulation  |
\*---------------------------------------------------------------------------*/
FoamFile
{
    version     2.0;
    format      ascii;
    class       surfaceScalarField;
    location    "115";
    object      phi;
}
// * * * * * * * * * * * * * * * * * * * * * * * * * * * * * * * * * * * * * //

dimensions      [0 3 -1 0 0 0 0];

internalField   nonuniform List<scalar> 
3886
(
0.00441366
-0.000480277
0.00450074
0.000823769
0.00462497
0.00222431
0.00477367
0.00370437
0.00493613
0.00512313
0.00510006
0.00640542
0.00525461
0.00732168
0.00538892
0.00775354
0.00548879
0.00747235
0.00554925
0.00637901
0.00556332
0.00446518
0.00553918
0.00187191
0.00547068
-0.000851158
0.00536548
-0.00343168
0.00523192
-0.0052115
0.0050896
-0.00642371
0.00494786
-0.00658029
0.00479505
-0.00654245
0.00464143
-0.00583907
0.00449808
-0.00534763
0.00441502
-0.00414522
0.0043853
-0.00271766
0.00442422
-0.000881519
0.00448075
0.00168407
0.00458164
0.00310706
0.00465094
0.00635038
0.00472968
0.00620468
0.00476965
0.00923412
0.0075705
0.00445417
0.00104404
0.00459145
0.00178589
0.00474564
0.00247786
0.0049097
0.00313686
0.00508251
0.00380643
0.00526697
0.00451877
0.00546557
0.00525106
0.00567535
0.00590334
0.00588578
0.0063152
0.00607908
0.00631651
0.006233
0.00578251
0.00632997
0.00465997
0.00636394
0.00298055
0.00633686
0.000909109
0.00625413
-0.00124371
0.0061251
-0.00311822
0.00596255
-0.0044669
0.00578055
-0.00523245
0.00559316
-0.00551024
0.00541225
-0.00544175
0.00524229
-0.00515888
0.00507977
-0.00476538
0.00492174
-0.0043265
0.00477559
-0.00384236
0.0046577
-0.00325949
0.00458547
-0.00252539
0.00456811
-0.00160543
0.00460716
-0.000519333
0.00469609
0.000734845
0.00482625
0.00209415
0.00498477
0.00354584
0.00516065
0.00494725
0.00534085
0.00622522
0.00551335
0.00714918
0.00566604
0.00760085
0.00578193
0.00735646
0.00585501
0.00630592
0.00587636
0.00444383
0.00585307
0.0018952
0.00577827
-0.000776357
0.00566032
-0.00331374
0.00550979
-0.00506097
0.00534897
-0.00626289
0.00519211
-0.00642343
0.00502783
-0.00637817
0.00486494
-0.00567618
0.00471066
-0.00519335
0.00461819
-0.00405274
0.00458295
-0.00268242
0.00462387
-0.000922436
0.00468603
0.00162191
0.00479823
0.00299485
0.00487867
0.00626995
0.00496898
0.00611437
0.00502606
0.00917705
0.00762851
0.00464311
0.000940559
0.00478004
0.00164895
0.00493686
0.00232105
0.00510574
0.00296798
0.00528543
0.00362673
0.00547918
0.00432503
0.00568972
0.00504052
0.00591415
0.00567891
0.00614148
0.00608788
0.00635187
0.00610612
0.00652085
0.00561353
0.00662984
0.00455098
0.00667169
0.0029387
0.00664684
0.000933962
0.00656024
-0.00115711
0.00642201
-0.00297999
0.00624693
-0.00429182
0.00605124
-0.00503677
0.00585041
-0.0053094
0.00565734
-0.00524868
0.0054779
-0.00497944
0.00530933
-0.00459681
0.00514746
-0.00416463
0.00499738
-0.00369227
0.00487406
-0.00313617
0.00479557
-0.0024469
0.00477284
-0.0015827
0.00480932
-0.000555812
0.00489939
0.000644771
0.00503516
0.00195838
0.00520361
0.00337739
0.00539341
0.00475746
0.00559083
0.0060278
0.00578251
0.0069575
0.00595496
0.0074284
0.00608825
0.00722318
0.00617538
0.00621879
0.00620505
0.00441416
0.00618285
0.0019174
0.00610144
-0.000694946
0.00597011
-0.00318241
0.00580187
-0.00489273
0.00562153
-0.00608256
0.00544851
-0.0062504
0.00527218
-0.00620184
0.00510009
-0.00550409
0.00493484
-0.0050281
0.0048322
-0.00395011
0.00479031
-0.00264053
0.00483256
-0.000964692
0.00490048
0.00155399
0.00502486
0.00287048
0.00511822
0.00617659
0.00522122
0.00601136
0.00529795
0.00910032
0.00767587
0.0048411
0.000843664
0.0049758
0.00151425
0.00513401
0.00216284
0.00530698
0.00279501
0.00549311
0.00344061
0.00569567
0.00412246
0.00591765
0.00481854
0.00615643
0.00544013
0.00640039
0.00584393
0.00662764
0.00587886
0.00681188
0.00542929
0.00693342
0.00442944
0.00698378
0.00288834
0.0069621
0.000955644
0.00687273
-0.00106774
0.00672629
-0.00283355
0.0065394
-0.00410493
0.00633059
-0.00482795
0.00611682
-0.00509563
0.00591195
-0.00504381
0.00572312
-0.00479061
0.00554857
-0.00442225
0.00538323
-0.00399929
0.00522981
-0.00353886
0.00510144
-0.0030078
0.00501651
-0.00236197
0.00498766
-0.00155385
0.00502055
-0.000588708
0.00511087
0.000554456
0.00525167
0.00181757
0.00542992
0.00319915
0.00563393
0.00455345
0.0058494
0.00581233
0.00606137
0.00674552
0.00625485
0.00723492
0.00640693
0.0070711
0.00650956
0.00611617
0.00654864
0.00437508
0.00652782
0.00193822
0.00643955
-0.00060667
0.00629428
-0.00303714
0.00610784
-0.00470629
0.00590721
-0.00588193
0.00571713
-0.00606033
0.00552821
-0.00601292
0.00534711
-0.00532298
0.00517109
-0.00485209
0.00505767
-0.00383669
0.00500788
-0.00259073
0.00505055
-0.00100736
0.00512418
0.00148035
0.00526143
0.00273323
0.00536974
0.00606828
0.00548658
0.00589453
0.0055856
0.00900129
0.00770972
0.00504934
0.000756104
0.00517929
0.0013843
0.00533707
0.00200506
0.00551302
0.00261905
0.00570485
0.00324878
0.00591556
0.00391175
0.00614833
0.00458578
0.00640089
0.00518757
0.00666087
0.00558394
0.00690451
0.00563522
0.00710388
0.00522991
0.0072382
0.00429512
0.00729776
0.00282879
0.00728047
0.000972926
0.00718982
-0.000977088
0.00703656
-0.00268029
0.00683895
-0.00390732
0.00661787
-0.00460687
0.00639196
-0.00486973
0.00617591
-0.00482776
0.00597797
-0.00459267
0.00579755
-0.00424184
0.00562913
-0.00383087
0.0054731
-0.00338282
0.00534027
-0.00287497
0.00524889
-0.00227059
0.00521319
-0.00151815
0.00524136
-0.000616878
0.00533076
0.000465059
0.00547571
0.00167262
0.00566331
0.00301155
0.00588157
0.00433519
0.00611573
0.00557817
0.00634891
0.00651235
0.00656454
0.00701928
0.0067368
0.00689883
0.00685635
0.00599662
0.00690593
0.0043255
0.00688686
0.00195729
0.00679152
-0.000511335
0.00663193
-0.00287755
0.00642706
-0.00450141
0.0062057
-0.00566057
0.00599791
-0.00585254
0.00579597
-0.00581098
0.00560615
-0.00513316
0.00541985
-0.00466579
0.00529524
-0.00371208
0.00523622
-0.00253171
0.00527807
-0.00104921
0.00535717
0.00140125
0.00550771
0.00258269
0.00563323
0.00594277
0.00576511
0.00576264
0.00588911
0.0088773
0.00772693
0.00526959
0.000680816
0.00539157
0.00126232
0.00554635
0.00185029
0.00572356
0.00244184
0.00591993
0.00305242
0.00613783
0.00369384
0.00638058
0.00434304
0.00664612
0.00492203
0.0069212
0.00530886
0.00718032
0.0053761
0.00739429
0.00501595
0.00754142
0.00414799
0.00761101
0.0027592
0.00759972
0.000984222
0.00750967
-0.000887045
0.00735134
-0.00252196
0.00714441
-0.00370039
0.00691224
-0.0043747
0.00667527
-0.00463276
0.00644895
-0.00460143
0.0062424
-0.00438613
0.00605635
-0.00405578
0.00588523
-0.00365976
0.00572736
-0.00322495
0.00559089
-0.0027385
0.00549329
-0.00217299
0.00545014
-0.00147499
0.00547235
-0.000639087
0.00555939
0.000378011
0.00570721
0.00152481
0.00590334
0.00281541
0.00613557
0.00410296
0.00638876
0.00532497
0.00664378
0.00625733
0.00688251
0.00678055
0.00707622
0.00670512
0.00721405
0.0058588
0.00727524
0.00426431
0.00725829
0.00197424
0.00715586
-0.000408914
0.00698177
-0.00270345
0.00675857
-0.00427822
0.00651649
-0.00541849
0.00629064
-0.00562669
0.00607537
-0.00559571
0.00587725
-0.00493504
0.00568143
-0.00446996
0.00554552
-0.00357618
0.00547595
-0.00246214
0.00551542
-0.00108867
0.00559944
0.00131723
0.00576331
0.00241882
0.00590847
0.0057976
0.00605668
0.00561443
0.00620829
0.00872569
0.00772409
0.00550415
0.000620501
0.00561446
0.001152
0.00576278
0.00170198
0.00593864
0.00226597
0.00613772
0.00285334
0.00636153
0.00347003
0.00661325
0.00409132
0.00689071
0.00464457
0.00717955
0.00502002
0.0074528
0.00510285
0.00768038
0.00478837
0.0078402
0.00398816
0.00792092
0.00267848
0.00791763
0.000987519
0.00783047
-0.000799884
0.00766913
-0.00236062
0.0074546
-0.00348586
0.00721279
-0.00413289
0.00696612
-0.00438609
0.00673072
-0.00436604
0.00651634
-0.00417174
0.00632497
-0.00386441
0.00615154
-0.00348632
0.00599266
-0.00306608
0.00585354
-0.00259938
0.00575026
-0.00206972
0.00569925
-0.00142398
0.00571422
-0.000654053
0.00579721
0.000295021
0.00594616
0.00137586
0.00614954
0.00261204
0.00639501
0.00385748
0.00666719
0.00505279
0.00694435
0.00598018
0.00720682
0.00651808
0.00742307
0.00648886
0.00758041
0.00570146
0.00765429
0.00419043
0.00763991
0.00198862
0.00753053
-0.00029953
0.00734204
-0.00251497
0.00710107
-0.00403724
0.00683879
-0.0051562
0.00659494
-0.00538285
0.00636626
-0.00536703
0.00616037
-0.00472916
0.00595607
-0.00426566
0.00580914
-0.00342925
0.00572777
-0.00238077
0.00576293
-0.00112383
0.005851
0.00122916
0.00602766
0.00224216
0.00619501
0.00563026
0.0063609
0.00544854
0.0065427
0.00854388
0.00769759
0.00575584
0.000576951
0.00585073
0.00105712
0.00598831
0.0015644
0.00615912
0.00209516
0.00635816
0.0026543
0.00658603
0.00324215
0.00684537
0.00383198
0.00713328
0.00435666
0.00743407
0.00471923
0.00771952
0.0048174
0.00795929
0.00454859
0.00813174
0.00381571
0.00822515
0.00258507
0.00823232
0.000980343
0.0081506
-0.00071816
0.0079885
-0.00219852
0.00776832
-0.00326568
0.00751859
-0.00388316
0.00726382
-0.00413132
0.00702083
-0.00412305
0.00679965
-0.00395056
0.00660345
-0.00366822
0.00642806
-0.00331093
0.00626897
-0.00290699
0.00612839
-0.0024588
0.00602031
-0.00196163
0.00596134
-0.00136501
0.00596782
-0.000660531
0.00604479
0.00021805
0.00619266
0.00122798
0.00640146
0.00240324
0.00665893
0.00360001
0.00694951
0.00476222
0.00724861
0.00568108
0.00753509
0.0062316
0.00777474
0.00624922
0.00795263
0.00552357
0.00804018
0.00410288
0.00802889
0.00199991
0.0079129
-0.000183539
0.00771056
-0.00231263
0.00745288
-0.00377956
0.00717154
-0.00487487
0.00691029
-0.0051216
0.00666836
-0.00512509
0.00645532
-0.00451612
0.00624386
-0.0040542
0.00608664
-0.00327203
0.00599245
-0.00228657
0.00602106
-0.00115245
0.00611193
0.00113829
0.00630008
0.002054
0.00649205
0.00543829
0.00667707
0.00526352
0.00689151
0.00832945
0.00764367
0.00602763
0.00055029
0.00610408
0.000980659
0.0062263
0.00144218
0.00638727
0.0019342
0.00658236
0.0024592
0.00681155
0.00301297
0.00707648
0.00356705
0.00737281
0.00406033
0.00768306
0.00440899
0.00797809
0.00452237
0.00822837
0.00429831
0.00841373
0.00363034
0.00852199
0.00247682
0.00854255
0.000959774
0.00846886
-0.000644468
0.00830822
-0.00203787
0.00808442
-0.00304188
0.00782871
-0.00362745
0.0075677
-0.00387031
0.00731884
-0.00387419
0.00709217
-0.00372389
0.00689181
-0.00346786
0.0067148
-0.00313391
0.00655622
-0.00274842
0.00641546
-0.00231804
0.00630379
-0.00184996
0.00623717
-0.00129839
0.00623409
-0.000657453
0.0063029
0.000149241
0.006447
0.00108388
0.00665879
0.00219146
0.00692634
0.00333246
0.00723403
0.00445452
0.00755429
0.00536083
0.00786458
0.00592131
0.00812811
0.00598569
0.00832731
0.00532438
0.00842936
0.00400083
0.00842173
0.00200754
0.0082998
-6.16175e-05
0.00808465
-0.00209747
0.00781197
-0.00350689
0.00751346
-0.00457635
0.00723599
-0.00484413
0.00698131
-0.00487041
0.00676185
-0.00429667
0.00654478
-0.00383713
0.0063785
-0.00310575
0.00627083
-0.0021789
0.00629039
-0.00117201
0.00638238
0.0010463
0.0065798
0.00185658
0.00679851
0.00521958
0.00700412
0.00505791
0.00725344
0.00808012
0.00755845
0.00632187
0.000538368
0.00637874
0.000923796
0.0064816
0.00133932
0.00662743
0.00178836
0.00681354
0.00227309
0.00704004
0.00278647
0.00730738
0.00329971
0.00760897
0.00375874
0.00792513
0.00409283
0.00822644
0.00422107
0.00848566
0.00403909
0.00868506
0.00343094
0.00881112
0.00235077
0.00884803
0.000922859
0.00878464
-0.00058107
0.00862733
-0.00188057
0.00840188
-0.00281644
0.00814227
-0.00336784
0.00787707
-0.00360511
0.00762429
-0.00362141
0.00739371
-0.00349331
0.00719007
-0.00326422
0.00701179
-0.00295563
0.0068543
-0.00259093
0.00671465
-0.0021784
0.00660094
-0.00173625
0.00652746
-0.00122492
0.00651409
-0.00064408
0.00657256
9.07728e-05
0.00670978
0.00094666
0.00692145
0.00197979
0.00719635
0.00305756
0.00751902
0.00413185
0.00785892
0.00502093
0.00819217
0.00558805
0.00847962
0.00569823
0.00870051
0.00510349
0.00881764
0.00388369
0.00881426
0.00201092
0.00868749
6.51478e-05
0.00846126
-0.00187123
0.00817605
-0.00322168
0.00786302
-0.00426333
0.00757122
-0.00455232
0.00730468
-0.00460387
0.0070796
-0.00407159
0.00685863
-0.00361616
0.00668503
-0.00293215
0.0065638
-0.00205767
0.00657168
-0.00117989
0.00666272
0.000955253
0.00686608
0.00165323
0.00711296
0.00497271
0.0073405
0.00483038
0.00762672
0.0077939
0.00743806
0.00663951
0.000536726
0.00667841
0.000884894
0.00676001
0.00125773
0.00688616
0.00166221
0.00705775
0.0021015
0.00727625
0.00256797
0.00754106
0.0030349
0.00784289
0.00345691
0.00815991
0.00377581
0.00846372
0.00391725
0.00873115
0.00377167
0.00894696
0.00321513
0.00909417
0.00220356
0.00914979
0.000867232
0.00909795
-0.000529223
0.00894516
-0.00172778
0.00871984
-0.00259111
0.00845851
-0.00310651
0.00819133
-0.00333793
0.00793674
-0.00336682
0.00770405
-0.00326062
0.00749824
-0.00305841
0.00731911
-0.0027765
0.0071631
-0.00243493
0.00702573
-0.00204102
0.00691173
-0.00162225
0.00683278
-0.00114597
0.00680891
-0.00062021
0.00685506
4.46261e-05
0.006982
0.000819717
0.00718977
0.00177201
0.00746836
0.00277897
0.00780281
0.0037974
0.00815992
0.00466382
0.00851457
0.0052334
0.0088254
0.0053874
0.00906784
0.00486106
0.00920027
0.00375125
0.00920173
0.00200947
0.00907182
0.000195051
0.00883705
-0.00163646
0.00854262
-0.00292725
0.00821858
-0.00393929
0.00791503
-0.00424877
0.00763802
-0.00432685
0.00740818
-0.00384175
0.00718507
-0.00339305
0.00700637
-0.00275345
0.00687225
-0.00192355
0.00686591
-0.00117355
0.00695357
0.000867598
0.00715837
0.00144842
0.00743376
0.00469732
0.00768414
0.00458
0.00800892
0.00746912
0.00727867
0.00697932
0.00053937
0.00700499
0.000859228
0.00706685
0.00119587
0.00717134
0.00155772
0.00732382
0.00194902
0.00752824
0.00236354
0.0077836
0.00277954
0.00807832
0.00316218
0.00838968
0.00346445
0.0086925
0.00361443
0.00896887
0.0034953
0.00920437
0.00297962
0.00937532
0.00203262
0.00945014
0.000792408
0.00940935
-0.000488431
0.0092613
-0.00157974
0.00903758
-0.00236739
0.00877679
-0.00284572
0.00851002
-0.00307116
0.00825584
-0.00311264
0.008023
-0.00302778
0.00781636
-0.00285177
0.00763688
-0.00259702
0.0074826
-0.00228064
0.0073484
-0.00190682
0.00723594
-0.00150979
0.00715342
-0.00106345
0.00711959
-0.000586383
0.00715194
1.22752e-05
0.00726518
0.000706481
0.00746463
0.00157256
0.00774221
0.00250139
0.00808406
0.00345555
0.0084549
0.00429299
0.00882849
0.00485981
0.00916145
0.00505444
0.00942459
0.00459793
0.00957206
0.00360378
0.00957906
0.00200247
0.0094483
0.000325807
0.00920859
-0.00139675
0.00890918
-0.00262784
0.00857844
-0.00360855
0.00826646
-0.00393679
0.00798083
-0.00404122
0.00774718
-0.0036081
0.00752367
-0.00316954
0.00734244
-0.00257222
0.00719699
-0.0017781
0.00717429
-0.00115085
0.00725588
0.000786012
0.00745651
0.00124779
0.00775918
0.00439465
0.00803251
0.00430667
0.00839691
0.00710473
0.00707674
0.00733797
0.000540287
0.00735736
0.000839838
0.00740491
0.00114832
0.00748984
0.00147279
0.00762147
0.00181739
0.00780655
0.00217846
0.00804452
0.00254157
0.00832332
0.00288339
0.00862219
0.00316557
0.00892179
0.00331483
0.00920907
0.00320803
0.00946667
0.00272202
0.00966092
0.00183837
0.00975201
0.000701317
0.0097195
-0.000455922
0.0095754
-0.00143563
0.00935453
-0.00214652
0.00909666
-0.00258785
0.00883281
-0.00280732
0.00858132
-0.00286115
0.00835035
-0.00279681
0.00814442
-0.00264583
0.0079653
-0.00241791
0.00781284
-0.00212818
0.00768236
-0.00177635
0.00757306
-0.00140049
0.00748929
-0.000979677
0.00744695
-0.000544038
0.00746491
-5.68897e-06
0.00756137
0.000610024
0.00774766
0.00138628
0.00801852
0.00223052
0.00836205
0.00311202
0.00874192
0.00391312
0.00913098
0.00447075
0.00948393
0.00470149
0.00976601
0.00431584
0.0099276
0.0034422
0.00994103
0.00198904
0.00981256
0.000454282
0.00957265
-0.00115685
0.00927341
-0.0023286
0.00894103
-0.00327617
0.00862456
-0.00362031
0.00833268
-0.00374935
0.00809623
-0.00337165
0.00787389
-0.0029472
0.00769286
-0.00239119
0.00753864
-0.00162388
0.00749818
-0.00111039
0.00757099
0.000713197
0.00776098
0.0010578
0.00808773
0.0040679
0.00838271
0.00401168
0.00878685
0.00670059
0.00682916
0.00771094
0.000535118
0.0077313
0.000819477
0.00777264
0.00110698
0.0078444
0.00140103
0.00795771
0.00170408
0.00812118
0.00201499
0.00833549
0.00232726
0.00859092
0.00262796
0.00887253
0.00288396
0.00916844
0.00301892
0.00946779
0.00290868
0.00974577
0.00244404
0.0099574
0.00162674
0.0100576
0.000601074
0.0100286
-0.000426848
0.00988704
-0.0012941
0.00967034
-0.00192983
0.00941791
-0.00233542
0.0091596
-0.00254901
0.00891308
-0.00261463
0.00868599
-0.00256972
0.00848242
-0.00244226
0.00830457
-0.00224005
0.00815401
-0.00197762
0.0080274
-0.00164974
0.00792249
-0.00129558
0.00783994
-0.000897122
0.00779141
-0.000495516
0.00779564
-9.91708e-06
0.00787315
0.000532521
0.00804141
0.00121801
0.00829901
0.00197293
0.00863716
0.00277388
0.00902009
0.00353018
0.00941998
0.00407086
0.00978954
0.00433194
0.0100876
0.00401776
0.0102618
0.00326801
0.0102828
0.00196808
0.0101608
0.000576251
0.00992662
-0.000922679
0.00963352
-0.0020355
0.00930505
-0.0029477
0.00898849
-0.00330375
0.00869321
-0.00345407
0.00845504
-0.00313348
0.00823523
-0.00272738
0.00805704
-0.002213
0.00789754
-0.00146438
0.00783901
-0.00105187
0.00790067
0.000651542
0.00807313
0.000885334
0.00841846
0.00372257
0.00873182
0.00369833
0.00917432
0.00625809
0.00653371
0.00809421
0.000522131
0.00812086
0.000792829
0.00816414
0.00106369
0.00823146
0.00133371
0.00833296
0.00160258
0.00847721
0.00187074
0.0086665
0.00213797
0.00889622
0.00239825
0.0091599
0.00262028
0.00945244
0.00272638
0.0097611
0.00260002
0.0100509
0.00215429
0.0102679
0.0014097
0.010367
0.000501981
0.0103358
-0.000395634
0.0101958
-0.00115409
0.00998492
-0.00171899
0.00974066
-0.00209116
0.00949056
-0.00229891
0.00925121
-0.00237528
0.00902987
-0.00234838
0.00883033
-0.00224272
0.00865487
-0.00206459
0.0085064
-0.00182915
0.00838349
-0.00152683
0.00828358
-0.00119567
0.00820447
-0.000818008
0.00815282
-0.000443864
0.0081454
-2.50093e-06
0.00820328
0.000474638
0.00834937
0.00107192
0.00858686
0.00173544
0.00891156
0.00244917
0.00929034
0.00315141
0.00969499
0.0036662
0.0100761
0.00395084
0.0103857
0.00370815
0.0105703
0.00308339
0.0106006
0.00193784
0.0104905
0.00068635
0.010269
-0.000701237
0.00998852
-0.00175501
0.00966969
-0.00262887
0.00935762
-0.00299168
0.00906215
-0.0031586
0.00882345
-0.00289479
0.00860722
-0.00251115
0.00843416
-0.00203993
0.00827357
-0.00130379
0.00819817
-0.000976472
0.00824695
0.000602766
0.00839533
0.000736948
0.00875143
0.00336648
0.00907738
0.00337238
0.00955467
0.00578081
0.00618957
0.00848558
0.000502021
0.00852061
0.000757796
0.00857131
0.001013
0.00864199
0.00126303
0.00873976
0.00150482
0.00887138
0.00173912
0.00904062
0.00196873
0.0092489
0.00218996
0.00949791
0.00237127
0.00978615
0.00243814
0.0100956
0.00229054
0.0103823
0.00186759
0.0105896
0.00120248
0.0106771
0.0004144
0.0106396
-0.0003581
0.0105014
-0.00101585
0.0102987
-0.00151633
0.0100655
-0.00185791
0.00982613
-0.00205958
0.00959599
-0.00214514
0.0093821
-0.00213449
0.00918815
-0.00204877
0.00901635
-0.00189278
0.0088704
-0.0016832
0.00875085
-0.00140729
0.00865588
-0.0011007
0.0085818
-0.000743925
0.00853029
-0.000392355
0.0085147
1.30884e-05
0.0085543
0.000435037
0.0086757
0.000950521
0.00888696
0.00152418
0.0091899
0.00214623
0.00955623
0.00278507
0.00995775
0.00326468
0.0103431
0.00356553
0.0106581
0.00339313
0.0108507
0.00289077
0.0108929
0.00189564
0.0108012
0.000778088
0.0106
-0.000500096
0.0103385
-0.00149352
0.0100348
-0.00232507
0.00973161
-0.00268854
0.00943935
-0.00286634
0.00920145
-0.00265688
0.00898959
-0.0022993
0.00882327
-0.00187361
0.00866616
-0.00114668
0.00857667
-0.000886982
0.00861197
0.000567466
0.00873101
0.000617916
0.00908795
0.00300953
0.00941808
0.00304224
0.00992368
0.00527521
0.00579807
0.008885
0.000476779
0.00892756
0.000715236
0.00898714
0.000953428
0.00906538
0.00118478
0.00916581
0.00140439
0.00929271
0.00161221
0.00945075
0.00181069
0.00964595
0.00199477
0.00988471
0.00213251
0.010165
0.00215787
0.0104628
0.0019927
0.0107303
0.00160011
0.0109145
0.0010183
0.0109839
0.000344978
0.010939
-0.000313218
0.0108045
-0.000881348
0.0106129
-0.0013247
0.0103934
-0.00163838
0.0101671
-0.00183332
0.00994794
-0.00192599
0.00974292
-0.00192947
0.00955592
-0.00186177
0.00938908
-0.00172594
0.00924632
-0.00154045
0.00912988
-0.00129084
0.00903929
-0.00101011
0.00897089
-0.000675529
0.0089224
-0.000343869
0.00890295
3.25417e-05
0.00892778
0.000410204
0.00902462
0.000853689
0.0092057
0.0013431
0.00947946
0.00187247
0.00982437
0.00244016
0.0102127
0.00287633
0.0105924
0.00318587
0.0109053
0.00308019
0.0111039
0.00269215
0.0111619
0.00183766
0.0110955
0.000844472
0.0109219
-0.000326512
0.010685
-0.00125659
0.0104007
-0.0020408
0.0101104
-0.00239821
0.00982479
-0.00258072
0.00958916
-0.00242125
0.00938225
-0.00209238
0.00922351
-0.00171487
0.0090743
-0.00099748
0.00897497
-0.000787648
0.0089976
0.000544835
0.00908428
0.000531241
0.00943081
0.002663
0.00975447
0.00271858
0.0102786
0.00475111
0.00536356
0.00929374
0.000448474
0.00934139
0.000667585
0.00940806
0.000886763
0.00949381
0.00109903
0.00959954
0.00129866
0.00972745
0.0014843
0.00988227
0.00165586
0.0100718
0.00180526
0.0103024
0.00190184
0.0105689
0.00189146
0.0108433
0.00171827
0.0110798
0.00136364
0.0112343
0.000863717
0.0112845
0.000294794
0.0112347
-0.000263369
0.0111071
-0.000753818
0.0109294
-0.00114694
0.0107258
-0.00143482
0.0105144
-0.00162194
0.0103077
-0.00171926
0.0101127
-0.00173448
0.00993376
-0.00168281
0.00977309
-0.00156526
0.00963444
-0.0014018
0.00952111
-0.00117751
0.00943407
-0.000923076
0.00937111
-0.000612561
0.00932751
-0.000300276
0.00930849
5.15656e-05
0.00932379
0.000394906
0.00939931
0.000778169
0.0095497
0.00119271
0.00978914
0.00163303
0.0101037
0.00212562
0.0104671
0.00251293
0.0108294
0.00282354
0.0111327
0.00277692
0.0113363
0.00248851
0.0114146
0.00175943
0.0113797
0.000879321
0.0112392
-0.000186024
0.0110305
-0.00104791
0.0107688
-0.00177909
0.0104943
-0.00212368
0.0102185
-0.00230494
0.00998686
-0.00218958
0.00978539
-0.00189091
0.00963416
-0.00156364
0.00949652
-0.000859847
0.00939273
-0.000683859
0.00940498
0.000532585
0.0094594
0.00047682
0.00978408
0.00233833
0.0100896
0.00241307
0.0106193
0.00422137
0.00489417
0.00971325
0.000418581
0.00976343
0.000617406
0.00983398
0.000816217
0.00992445
0.00100856
0.0100345
0.00118866
0.010165
0.00135371
0.0103203
0.00150062
0.0105068
0.00161875
0.0107281
0.0016806
0.0109745
0.00164499
0.0112182
0.00147456
0.0114198
0.00116205
0.0115454
0.000738115
0.0115802
0.000260035
0.0115297
-0.000212844
0.0114125
-0.000636638
0.0112508
-0.00098528
0.0110647
-0.00124872
0.0108694
-0.00142662
0.0106761
-0.00152599
0.010492
-0.00155039
0.0103219
-0.0015127
0.0101684
-0.00141175
0.0100348
-0.00126824
0.009925
-0.00106767
0.00984087
-0.000838938
0.00978239
-0.000554082
0.00974427
-0.000262162
0.009729
6.68424e-05
0.00974062
0.000383285
0.00980074
0.00071805
0.00992375
0.00106969
0.010127
0.00142977
0.0104036
0.00184905
0.0107303
0.00218618
0.0110642
0.00248969
0.0113518
0.00248927
0.0115608
0.00227957
0.0116629
0.00165728
0.011663
0.000879268
0.0115578
-8.08828e-05
0.0113785
-0.000868574
0.0111406
-0.00154117
0.0108838
-0.00186688
0.0106207
-0.00204183
0.0103948
-0.00196376
0.0101994
-0.0016955
0.0100549
-0.00141915
0.00993134
-0.000736252
0.00982869
-0.00058121
0.00983428
0.000526992
0.00985992
0.000451178
0.0101527
0.00204554
0.0104294
0.00213639
0.0109495
0.00370122
0.00440207
0.0101445
0.000387933
0.0101953
0.0005666
0.0102667
0.000744788
0.0103584
0.000916862
0.0104697
0.00107731
0.0106013
0.00122217
0.0107559
0.00134599
0.0109376
0.00143711
0.0111456
0.00147251
0.0113682
0.00142246
0.0115796
0.0012631
0.0117488
0.000992862
0.0118508
0.000636078
0.0118758
0.000235067
0.0118289
-0.000165883
0.0117244
-0.00053222
0.01158
-0.000840843
0.0114119
-0.00108062
0.0112331
-0.00124786
0.011054
-0.0013468
0.0108814
-0.00137786
0.0107208
-0.00135204
0.0105751
-0.00126613
0.0104476
-0.00114066
0.0103419
-0.000961955
0.0102604
-0.000757485
0.0102053
-0.000498948
0.0101721
-0.000228993
0.0101623
7.66688e-05
0.0101753
0.000370303
0.0102269
0.000666367
0.0103287
0.000967906
0.0104975
0.00126101
0.0107319
0.00161468
0.0110139
0.00190417
0.011312
0.00219159
0.0115812
0.00222007
0.0117958
0.00206496
0.0119224
0.00153064
0.0119559
0.000845775
0.0118841
-9.04392e-06
0.0117323
-0.000716795
0.0115176
-0.00132651
0.0112795
-0.00162872
0.0110313
-0.00179369
0.0108134
-0.00174582
0.010625
-0.00150706
0.010486
-0.0012802
0.0103774
-0.000627649
0.0102809
-0.000484667
0.0102843
0.000523537
0.0102878
0.000447675
0.0105419
0.00179146
0.0107825
0.00189578
0.0112772
0.00320651
0.003903
0.0105878
0.000356989
0.010638
0.000516323
0.0107083
0.000674535
0.0107984
0.000826748
0.0109079
0.000967771
0.0110372
0.00109291
0.0111877
0.0011955
0.0113604
0.00126436
0.0115518
0.00128116
0.0117491
0.00122516
0.0119309
0.00108125
0.0120733
0.000850503
0.012158
0.000551329
0.0121782
0.000214891
0.0121375
-0.000125202
0.0120468
-0.000441509
0.0119196
-0.000713628
0.0117693
-0.000930273
0.011607
-0.00108561
0.0114421
-0.00118191
0.0112816
-0.00121729
0.0111308
-0.00120124
0.0109935
-0.00112889
0.0108726
-0.00101977
0.0107718
-0.000861104
0.0106932
-0.000678928
0.0106406
-0.000446369
0.0106113
-0.000199666
0.010607
8.10175e-05
0.0106243
0.000352936
0.0106735
0.000617231
0.010761
0.000880383
0.0109001
0.0011219
0.0110933
0.00142143
0.0113293
0.00166816
0.0115907
0.00193023
0.0118416
0.00196914
0.0120606
0.00184602
0.0122072
0.00138402
0.0122674
0.000785538
0.0122228
3.56102e-05
0.0120946
-0.000588635
0.0119016
-0.00113346
0.0116822
-0.00140936
0.0114508
-0.00156224
0.0112428
-0.00153792
0.0110626
-0.00132685
0.0109281
-0.00114567
0.010834
-0.000533528
0.010747
-0.000397655
0.0107528
0.000517762
0.010743
0.000457452
0.0109562
0.0015782
0.0111591
0.00169288
0.011614
0.00275168
0.0034151
0.0110432
0.000326074
0.0110923
0.000467228
0.0111602
0.000606632
0.0112469
0.00073999
0.0113523
0.000862426
0.0114762
0.000968988
0.0116189
0.0010528
0.0117793
0.00110397
0.011952
0.00110849
0.0121251
0.00105199
0.0122814
0.00092494
0.0124026
0.000729317
0.0124752
0.000478782
0.0124936
0.000196451
0.0124602
-9.17843e-05
0.0123828
-0.000364125
0.0122719
-0.000602728
0.0121385
-0.000796828
0.0119922
-0.000939346
0.0118415
-0.00103122
0.0116931
-0.00106888
0.0115525
-0.0010606
0.0114239
-0.0010003
0.0113101
-0.000906019
0.0112148
-0.00076576
0.0111396
-0.000603793
0.0110894
-0.000396136
0.0110628
-0.000173063
0.0110628
8.09897e-05
0.0110852
0.000330563
0.0111351
0.000567348
0.0112142
0.000801311
0.0113305
0.00100561
0.0114892
0.0012627
0.0116854
0.0014719
0.0119149
0.00170077
0.0121491
0.001735
0.0123679
0.00162719
0.0125256
0.00122632
0.0126019
0.000709199
0.0125762
6.13021e-05
0.012467
-0.000479378
0.0122935
-0.000959998
0.0120928
-0.00120865
0.0118793
-0.0013487
0.0116834
-0.00134206
0.011513
-0.00115641
0.0113823
-0.001015
0.011301
-0.000452199
0.011225
-0.000321687
0.0112366
0.000506205
0.0112231
0.000470944
0.0113988
0.00140251
0.0115683
0.00152335
0.0119722
0.00234775
0.00295654
0.0115108
0.000295491
0.0115583
0.000419736
0.0116232
0.00054171
0.0117056
0.000657571
0.0118052
0.000762779
0.0119217
0.000852494
0.0120543
0.000920265
0.0122004
0.000957806
0.0123543
0.00095459
0.0125056
0.000900718
0.0126404
0.000790129
0.0127449
0.000624851
0.0128084
0.000415278
0.0128264
0.000178449
0.0127999
-6.53319e-05
0.0127347
-0.000298878
0.0126387
-0.000506734
0.012521
-0.000679082
0.0123899
-0.00080828
0.012253
-0.000894358
0.0121168
-0.000932621
0.0119864
-0.00093027
0.0118667
-0.000880546
0.0117603
-0.000799629
0.0116709
-0.00067634
0.0115998
-0.000532736
0.0115521
-0.000348404
0.0115277
-0.000148642
0.0115305
7.81441e-05
0.0115567
0.000304396
0.0116078
0.000516179
0.0116821
0.000727012
0.0117829
0.000904869
0.0119171
0.0011285
0.0120844
0.00130456
0.0122894
0.00149577
0.0125078
0.00151658
0.0127198
0.00141525
0.0128776
0.00106851
0.0129591
0.000627645
0.0129444
7.60544e-05
0.0128501
-0.000385101
0.0126946
-0.000804515
0.0125124
-0.0010264
0.0123174
-0.00115379
0.0121354
-0.00115998
0.0119764
-0.00099741
0.0118498
-0.00088844
0.011779
-0.000381379
0.0117138
-0.000256508
0.011733
0.000487024
0.0117242
0.000479715
0.0118699
0.00125681
0.0120146
0.00137862
0.0123614
0.00200103
0.00254246
0.0119907
0.000265536
0.0120363
0.000374161
0.0120978
0.000480141
0.0121754
0.000580021
0.0122685
0.000669647
0.0123765
0.000744526
0.0124978
0.000798954
0.0126294
0.000826188
0.0127656
0.000818392
0.0128976
0.000768756
0.0130144
0.000673321
0.0131051
0.000534162
0.0131614
0.00035891
0.0131791
0.000160751
0.0131588
-4.49723e-05
0.0131041
-0.000244238
0.0130214
-0.000424048
0.012918
-0.000575682
0.0128012
-0.000691439
0.0126776
-0.000770774
0.0125533
-0.000808309
0.0124333
-0.000810271
0.0123224
-0.000769667
0.0122235
-0.000700696
0.0121402
-0.000593056
0.0120737
-0.000466263
0.0120289
-0.000303611
0.0120065
-0.000126225
0.0120109
7.38143e-05
0.0120389
0.000276394
0.0120901
0.000464894
0.0121614
0.000655779
0.0122527
0.000813588
0.0123721
0.00100908
0.0125211
0.00115551
0.0127081
0.00130884
0.0129104
0.00131424
0.0131086
0.0012171
0.0132571
0.000919956
0.0133356
0.000549215
0.0133265
8.51328e-05
0.0132446
-0.000303239
0.0131062
-0.000666072
0.0129423
-0.000862507
0.0127662
-0.000977751
0.0125991
-0.000992874
0.012453
-0.000851242
0.0123316
-0.0007671
0.0122691
-0.00031884
0.0122134
-0.000200822
0.0122403
0.000460153
0.0122419
0.000478053
0.0123672
0.00113158
0.0124965
0.0012493
0.0127853
0.00171225
0.0021817
0.0124832
0.000236487
0.0125266
0.000330765
0.0125845
0.000422174
0.0126569
0.000507625
0.0127432
0.000583393
0.0128422
0.000645458
0.0129522
0.000688958
0.0130699
0.000708509
0.01319
0.00069829
0.0133052
0.000653569
0.0134067
0.000571882
0.0134858
0.000454964
0.0135359
0.000308835
0.0135533
0.000143336
0.0135379
-2.95672e-05
0.0134924