/*--------------------------------*- C++ -*----------------------------------*\
  =========                 |
  \\      /  F ield         | OpenFOAM: The Open Source CFD Toolbox
   \\    /   O peration     | Website:  https://openfoam.org
    \\  /    A nd           | Version:  7
     \\/     M anipulation  |
\*---------------------------------------------------------------------------*/
FoamFile
{
    version     2.0;
    format      ascii;
    class       volScalarField;
    location    "165";
    object      p;
}
// * * * * * * * * * * * * * * * * * * * * * * * * * * * * * * * * * * * * * //

dimensions      [0 2 -2 0 0 0 0];

internalField   nonuniform List<scalar> 
31800
(
-0.367946
-0.370689
-0.372034
-0.373051
-0.373972
-0.37489
-0.375893
-0.377014
-0.378253
-0.379583
-0.380951
-0.38228
-0.383471
-0.384404
-0.384944
-0.38495
-0.384288
-0.382855
-0.380613
-0.377622
-0.374088
-0.370404
-0.367172
-0.365063
-0.364957
-0.361874
-0.364607
-0.365894
-0.366794
-0.367532
-0.368193
-0.368857
-0.369561
-0.370303
-0.371057
-0.371775
-0.372389
-0.372814
-0.372957
-0.37272
-0.372014
-0.370774
-0.368986
-0.366711
-0.364122
-0.361529
-0.359416
-0.358432
-0.359217
-0.362588
-0.35608
-0.358766
-0.35998
-0.36076
-0.361316
-0.361724
-0.362063
-0.362363
-0.362627
-0.362829
-0.362925
-0.362858
-0.362558
-0.361958
-0.360996
-0.359634
-0.357874
-0.355782
-0.353512
-0.351335
-0.349655
-0.34902
-0.350114
-0.353527
-0.359854
-0.350575
-0.353181
-0.354311
-0.354968
-0.355345
-0.355511
-0.355536
-0.355452
-0.35526
-0.354937
-0.354446
-0.353737
-0.352759
-0.351468
-0.349839
-0.347883
-0.345663
-0.343318
-0.341088
-0.339327
-0.338516
-0.339246
-0.342217
-0.347981
-0.356697
-0.345364
-0.347861
-0.348899
-0.349432
-0.349636
-0.349569
-0.349298
-0.34885
-0.348228
-0.347411
-0.346368
-0.345061
-0.343454
-0.341529
-0.339294
-0.336806
-0.334185
-0.331638
-0.329474
-0.32812
-0.328116
-0.33008
-0.3347
-0.342544
-0.353266
-0.340446
-0.342812
-0.34375
-0.344161
-0.344199
-0.343913
-0.343363
-0.342573
-0.341546
-0.340267
-0.338711
-0.336849
-0.334665
-0.332162
-0.329382
-0.326423
-0.323457
-0.320748
-0.318668
-0.3177
-0.318425
-0.321476
-0.327497
-0.337094
-0.34936
-0.335815
-0.338034
-0.33887
-0.33916
-0.339041
-0.33855
-0.337737
-0.336628
-0.335223
-0.333514
-0.331481
-0.32911
-0.326397
-0.323371
-0.320103
-0.31673
-0.313468
-0.310632
-0.308642
-0.308025
-0.309389
-0.31337
-0.320535
-0.331615
-0.344927
-0.331463
-0.333524
-0.334257
-0.334432
-0.334164
-0.33348
-0.332424
-0.331017
-0.329261
-0.327151
-0.324678
-0.321838
-0.318644
-0.315145
-0.311443
-0.307707
-0.304193
-0.301254
-0.299351
-0.299041
-0.300941
-0.305694
-0.313735
-0.326043
-0.339989
-0.327377
-0.329278
-0.329909
-0.329973
-0.329567
-0.328705
-0.327422
-0.325737
-0.323654
-0.321173
-0.318292
-0.315021
-0.311388
-0.307464
-0.303375
-0.299321
-0.295588
-0.292566
-0.290737
-0.290683
-0.293014
-0.298387
-0.307042
-0.320322
-0.334579
-0.323545
-0.325289
-0.325822
-0.325782
-0.325247
-0.324219
-0.322726
-0.320781
-0.318393
-0.315566
-0.312308
-0.30864
-0.304607
-0.300299
-0.295865
-0.29153
-0.287608
-0.284509
-0.282742
-0.282891
-0.285545
-0.291399
-0.300429
-0.314435
-0.328747
-0.319954
-0.32155
-0.321991
-0.321854
-0.321199
-0.320017
-0.318327
-0.316141
-0.313467
-0.310316
-0.306707
-0.302672
-0.298272
-0.293616
-0.288872
-0.284289
-0.280199
-0.277033
-0.275307
-0.275611
-0.278489
-0.284702
-0.293896
-0.308412
-0.322574
-0.31659
-0.318054
-0.318409
-0.318184
-0.317417
-0.316092
-0.314218
-0.311805
-0.308862
-0.305407
-0.301469
-0.297093
-0.292356
-0.287382
-0.282359
-0.277554
-0.273315
-0.270085
-0.268384
-0.268801
-0.271815
-0.278288
-0.287472
-0.302325
-0.316164
-0.313444
-0.314793
-0.315074
-0.314767
-0.313897
-0.312437
-0.310391
-0.307762
-0.304565
-0.300823
-0.296575
-0.29188
-0.28683
-0.281566
-0.27629
-0.271286
-0.266915
-0.263627
-0.261936
-0.262435
-0.265517
-0.272178
-0.281211
-0.296287
-0.30963
-0.310508
-0.311765
-0.31198
-0.311599
-0.310633
-0.309047
-0.306836
-0.304003
-0.300564
-0.29655
-0.29201
-0.287015
-0.281674
-0.276142
-0.270638
-0.265456
-0.260969
-0.257631
-0.255943
-0.256506
-0.259605
-0.266412
-0.275189
-0.290433
-0.303094
-0.307777
-0.308966
-0.309127
-0.308678
-0.307622
-0.305915
-0.303548
-0.30052
-0.296851
-0.292578
-0.28776
-0.282484
-0.276872
-0.271094
-0.265384
-0.260046
-0.255462
-0.252085
-0.250403
-0.251024
-0.254114
-0.261047
-0.269491
-0.2849
-0.296677
-0.305251
-0.306397
-0.306513
-0.306003
-0.304862
-0.30304
-0.300522
-0.297308
-0.293419
-0.2889
-0.283821
-0.278281
-0.272418
-0.266417
-0.260524
-0.255054
-0.250393
-0.246996
-0.245331
-0.246019
-0.249092
-0.256149
-0.264215
-0.279788
-0.290499
-0.302934
-0.30406
-0.30414
-0.303575
-0.302352
-0.300419
-0.297757
-0.294365
-0.290268
-0.285516
-0.280193
-0.274409
-0.268316
-0.262115
-0.256065
-0.25049
-0.245779
-0.242387
-0.240762
-0.241533
-0.244601
-0.251777
-0.259454
-0.275132
-0.284671
-0.300834
-0.301962
-0.302013
-0.301396
-0.300096
-0.298055
-0.295254
-0.291693
-0.2874
-0.282432
-0.276882
-0.270876
-0.264579
-0.258206
-0.252029
-0.246379
-0.241651
-0.238297
-0.236741
-0.237618
-0.240706
-0.247974
-0.255284
-0.270883
-0.279258
-0.298963
-0.300111
-0.300139
-0.299472
-0.298096
-0.295952
-0.293019
-0.289299
-0.284823
-0.279657
-0.273904
-0.267701
-0.26123
-0.254717
-0.248447
-0.24276
-0.238053
-0.234772
-0.23332
-0.234323
-0.237458
-0.244749
-0.251737
-0.266919
-0.274241
-0.297338
-0.298517
-0.298526
-0.29781
-0.29636
-0.294116
-0.291058
-0.287191
-0.282549
-0.277208
-0.271277
-0.264909
-0.258297
-0.251682
-0.245359
-0.239676
-0.235029
-0.231861
-0.230546
-0.231683
-0.234879
-0.242073
-0.248776
-0.263091
-0.26949
-0.295978
-0.297193
-0.297183
-0.296419
-0.294897
-0.292557
-0.289383
-0.285382
-0.280595
-0.275103
-0.269026
-0.262527
-0.255812
-0.249136
-0.242804
-0.237168
-0.232624
-0.2296
-0.228444
-0.229701
-0.23294
-0.239876
-0.246279
-0.259266
-0.264807
-0.294905
-0.296154
-0.296122
-0.295309
-0.293714
-0.291284
-0.288005
-0.283888
-0.278976
-0.273363
-0.267174
-0.260583
-0.253808
-0.247115
-0.240817
-0.235271
-0.230863
-0.228004
-0.227008
-0.228342
-0.231561
-0.238047
-0.244052
-0.255351
-0.260001
-0.29414
-0.295414
-0.295355
-0.294488
-0.292823
-0.290309
-0.286936
-0.282721
-0.277712
-0.272007
-0.265742
-0.2591
-0.252309
-0.245643
-0.23942
-0.233997
-0.229748
-0.227055
-0.22619
-0.227521
-0.230605
-0.236447
-0.241875
-0.251291
-0.254958
-0.293706
-0.294986
-0.294892
-0.293968
-0.292232
-0.28964
-0.286187
-0.281893
-0.276814
-0.271051
-0.264748
-0.258095
-0.251329
-0.244728
-0.238614
-0.233335
-0.229248
-0.226695
-0.225899
-0.227114
-0.229907
-0.23492
-0.239559
-0.24705
-0.249649
-0.293621
-0.294883
-0.294741
-0.293754
-0.291949
-0.289285
-0.285765
-0.281414
-0.276291
-0.270502
-0.264196
-0.257569
-0.250863
-0.244359
-0.238374
-0.233245
-0.2293
-0.226832
-0.22601
-0.226967
-0.229294
-0.233317
-0.236977
-0.24261
-0.24409
-0.293903
-0.295114
-0.294911
-0.293853
-0.291976
-0.289247
-0.285674
-0.281284
-0.276142
-0.270355
-0.264078
-0.257509
-0.250891
-0.244502
-0.238652
-0.233656
-0.229808
-0.227344
-0.226375
-0.22692
-0.228609
-0.231509
-0.234067
-0.237967
-0.238317
-0.294561
-0.295686
-0.295404
-0.294266
-0.292315
-0.289525
-0.285908
-0.281496
-0.276356
-0.270597
-0.264374
-0.257885
-0.25137
-0.245102
-0.239374
-0.234474
-0.230657
-0.228095
-0.226845
-0.226824
-0.227726
-0.229406
-0.230813
-0.233113
-0.232386
-0.295604
-0.296601
-0.296221
-0.294991
-0.29296
-0.29011
-0.286458
-0.282036
-0.276915
-0.271201
-0.265049
-0.258652
-0.252244
-0.246087
-0.240452
-0.235593
-0.231721
-0.228946
-0.227279
-0.226561
-0.226556
-0.22696
-0.227212
-0.227987
-0.226358
-0.297031
-0.297858
-0.297358
-0.296023
-0.293903
-0.290991
-0.287306
-0.282883
-0.277789
-0.272131
-0.266056
-0.259754
-0.253445
-0.247374
-0.241785
-0.236898
-0.232874
-0.229771
-0.227563
-0.226047
-0.225057
-0.224181
-0.223281
-0.222452
-0.220173
-0.298838
-0.299453
-0.29881
-0.297351
-0.295132
-0.292151
-0.288431
-0.284007
-0.278944
-0.273343
-0.267346
-0.261128
-0.254898
-0.248875
-0.243275
-0.238278
-0.234001
-0.230462
-0.227611
-0.225235
-0.223225
-0.221129
-0.219088
-0.216506
-0.213631
-0.301017
-0.301377
-0.300568
-0.298966
-0.296631
-0.293571
-0.289808
-0.285379
-0.280343
-0.274795
-0.268864
-0.262713
-0.256529
-0.250505
-0.244826
-0.239631
-0.235004
-0.230935
-0.227367
-0.224105
-0.221085
-0.21788
-0.214754
-0.210681
-0.206639
-0.303555
-0.303623
-0.302622
-0.300854
-0.298386
-0.295231
-0.291415
-0.28697
-0.281952
-0.276444
-0.270562
-0.264449
-0.258268
-0.252186
-0.24635
-0.240871
-0.235803
-0.23113
-0.226804
-0.222664
-0.218681
-0.214486
-0.210339
-0.205241
-0.200314
-0.306439
-0.30618
-0.304959
-0.303005
-0.300381
-0.297114
-0.293228
-0.288754
-0.283738
-0.278252
-0.272393
-0.266282
-0.260054
-0.253844
-0.247772
-0.241923
-0.236342
-0.231015
-0.225919
-0.220934
-0.216064
-0.210991
-0.205974
-0.200093
-0.194438
-0.309657
-0.309036
-0.307575
-0.305408
-0.302606
-0.299205
-0.295232
-0.29071
-0.285678
-0.280189
-0.27432
-0.268165
-0.261828
-0.255418
-0.249029
-0.242735
-0.236581
-0.230577
-0.224724
-0.218949
-0.213277
-0.207442
-0.201691
-0.195189
-0.189056
-0.313196
-0.312187
-0.31046
-0.308056
-0.305053
-0.301498
-0.297416
-0.292827
-0.287754
-0.282233
-0.276313
-0.270058
-0.263544
-0.256855
-0.250072
-0.243268
-0.236504
-0.229819
-0.223244
-0.216743
-0.210358
-0.203865
-0.197499
-0.190504
-0.183986
-0.317047
-0.315625
-0.313609
-0.310947
-0.30772
-0.303989
-0.299779
-0.295099
-0.289959
-0.284367
-0.278344
-0.271925
-0.265159
-0.258111
-0.250863
-0.2435
-0.236108
-0.228757
-0.221505
-0.214349
-0.207336
-0.200278
-0.193395
-0.185992
-0.179166
-0.321203
-0.319348
-0.317024
-0.314081
-0.31061
-0.306683
-0.302322
-0.297528
-0.292285
-0.286578
-0.280393
-0.273736
-0.266636
-0.259153
-0.251379
-0.243424
-0.235402
-0.227414
-0.21954
-0.211797
-0.204233
-0.196688
-0.189365
-0.181624
-0.174533
-0.325663
-0.323355
-0.320705
-0.317463
-0.313729
-0.309588
-0.305055
-0.300117
-0.294733
-0.288854
-0.282437
-0.275461
-0.267944
-0.259956
-0.251609
-0.243043
-0.234404
-0.225817
-0.217376
-0.20911
-0.201063
-0.193098
-0.185396
-0.177368
-0.170046
-0.330428
-0.32765
-0.324659
-0.321103
-0.31709
-0.312716
-0.307988
-0.302872
-0.297299
-0.291184
-0.284455
-0.277073
-0.26906
-0.260504
-0.251548
-0.242368
-0.233136
-0.223991
-0.215036
-0.206304
-0.197833
-0.189503
-0.181472
-0.1732
-0.165674
-0.335501
-0.332238
-0.328893
-0.32501
-0.320705
-0.316081
-0.311132
-0.305799
-0.299978
-0.293553
-0.286424
-0.278548
-0.269963
-0.260787
-0.251203
-0.241417
-0.231619
-0.221961
-0.21254
-0.203394
-0.194548
-0.185898
-0.177579
-0.169097
-0.16139
-0.340887
-0.337123
-0.333415
-0.329196
-0.324588
-0.319695
-0.314496
-0.308898
-0.302763
-0.295941
-0.28832
-0.279863
-0.270638
-0.260805
-0.250583
-0.240206
-0.229876
-0.219745
-0.209904
-0.200386
-0.191207
-0.182275
-0.173703
-0.16504
-0.157172
-0.346591
-0.342311
-0.338232
-0.333672
-0.328749
-0.323569
-0.318083
-0.312164
-0.305636
-0.298326
-0.290116
-0.280997
-0.271075
-0.260558
-0.249701
-0.238755
-0.227926
-0.217359
-0.207137
-0.197285
-0.187808
-0.178626
-0.169829
-0.161011
-0.153
-0.352617
-0.347806
-0.343352
-0.338445
-0.333198
-0.327707
-0.321892
-0.315584
-0.308577
-0.300679
-0.291787
-0.28193
-0.271267
-0.260052
-0.248569
-0.237079
-0.225783
-0.214815
-0.204245
-0.19409
-0.184346
-0.174942
-0.165946
-0.156995
-0.148856
-0.358965
-0.353609
-0.348777
-0.34352
-0.337937
-0.332108
-0.325911
-0.319139
-0.311556
-0.302969
-0.293306
-0.282648
-0.271211
-0.259294
-0.2472
-0.235192
-0.22346
-0.212121
-0.201232
-0.190801
-0.180816
-0.171214
-0.162041
-0.152977
-0.144725
-0.365632
-0.359719
-0.354508
-0.348897
-0.342964
-0.336761
-0.330122
-0.3228
-0.314539
-0.305162
-0.294646
-0.283134
-0.270904
-0.258288
-0.245604
-0.233104
-0.220963
-0.20928
-0.198097
-0.187414
-0.177211
-0.167432
-0.158102
-0.148944
-0.140593
-0.372608
-0.366129
-0.360538
-0.354571
-0.348268
-0.341649
-0.334497
-0.32653
-0.317485
-0.307222
-0.29578
-0.283377
-0.270343
-0.257041
-0.243787
-0.230821
-0.218296
-0.206292
-0.194838
-0.183924
-0.173524
-0.163586
-0.154119
-0.144884
-0.136447
-0.379878
-0.372824
-0.366857
-0.360528
-0.353832
-0.346745
-0.339
-0.330285
-0.320351
-0.309112
-0.296685
-0.283363
-0.269527
-0.255554
-0.241754
-0.228346
-0.215459
-0.203156
-0.19145
-0.180325
-0.169747
-0.159669
-0.150082
-0.140785
-0.132274
-0.38742
-0.379787
-0.373446
-0.366748
-0.359628
-0.352013
-0.343584
-0.334014
-0.323088
-0.310793
-0.297335
-0.283081
-0.268451
-0.253827
-0.239505
-0.225678
-0.212451
-0.199868
-0.187929
-0.176609
-0.165872
-0.15567
-0.145981
-0.136638
-0.128065
-0.395203
-0.386992
-0.38028
-0.373202
-0.365621
-0.357407
-0.348197
-0.337664
-0.325648
-0.312229
-0.297708
-0.282518
-0.26711
-0.251859
-0.237039
-0.222814
-0.209266
-0.196421
-0.184266
-0.172771
-0.161891
-0.151581
-0.141806
-0.132431
-0.123808
-0.403191
-0.394406
-0.387327
-0.379853
-0.371765
-0.362872
-0.352777
-0.341174
-0.32798
-0.313383
-0.29778
-0.281663
-0.265497
-0.249644
-0.234349
-0.219748
-0.205899
-0.19281
-0.180456
-0.168801
-0.157795
-0.147394
-0.137549
-0.128156
-0.119495
-0.411337
-0.401987
-0.394544
-0.386656
-0.378006
-0.368348
-0.35726
-0.344483
-0.330035
-0.314221
-0.29753
-0.280502
-0.263603
-0.247175
-0.23143
-0.216474
-0.202342
-0.189025
-0.17649
-0.164691
-0.153577
-0.143099
-0.133202
-0.123805
-0.115116
-0.419587
-0.409687
-0.401883
-0.393555
-0.384282
-0.373763
-0.361575
-0.347528
-0.331763
-0.314708
-0.296936
-0.27902
-0.261418
-0.244442
-0.228271
-0.21298
-0.198584
-0.185058
-0.172359
-0.160434
-0.149229
-0.13869
-0.128756
-0.119368
-0.110664
-0.42788
-0.417449
-0.409286
-0.400487
-0.390521
-0.379042
-0.365647
-0.350246
-0.333118
-0.314811
-0.295976
-0.277201
-0.258928
-0.241434
-0.224861
-0.209258
-0.194617
-0.1809
-0.168055
-0.156022
-0.144741
-0.134158
-0.124204
-0.114838
-0.106132
-0.436146
-0.42521
-0.416686
-0.40738
-0.396645
-0.384105
-0.369404
-0.352576
-0.334052
-0.314499
-0.294627
-0.275029
-0.256119
-0.238137
-0.221189
-0.205296
-0.190431
-0.176542
-0.163568
-0.151445
-0.140108
-0.129496
-0.119539
-0.110209
-0.101512
-0.444309
-0.432896
-0.42401
-0.414154
-0.40257
-0.388866
-0.372767
-0.354457
-0.334521
-0.313741
-0.292867
-0.272486
-0.252977
-0.234538
-0.217242
-0.201082
-0.186014
-0.171974
-0.158892
-0.146697
-0.135321
-0.124698
-0.114755
-0.105472
-0.096799
-0.452286
-0.44043
-0.431177
-0.420724
-0.408204
-0.39324
-0.375664
-0.35583
-0.334485
-0.312506
-0.290674
-0.269554
-0.249485
-0.230623
-0.213006
-0.196604
-0.181356
-0.167186
-0.154016
-0.14177
-0.130373
-0.119756
-0.109845
-0.100624
-0.0919871
-0.459987
-0.447725
-0.438099
-0.426996
-0.413456
-0.39714
-0.378021
-0.356641
-0.333903
-0.310767
-0.288026
-0.266215
-0.245626
-0.226375
-0.208468
-0.19185
-0.176446
-0.162169
-0.148933
-0.136656
-0.125258
-0.114666
-0.104803
-0.0956567
-0.0870715
-0.467317
-0.454691
-0.44468
-0.432873
-0.418228
-0.400478
-0.379767
-0.356837
-0.332738
-0.308496
-0.284901
-0.262448
-0.241384
-0.221781
-0.203614
-0.186809
-0.171275
-0.156915
-0.143636
-0.131348
-0.11997
-0.10942
-0.0996244
-0.0905663
-0.0820482
-0.474179
-0.46123
-0.450824
-0.438254
-0.422424
-0.40317
-0.380837
-0.356368
-0.330954
-0.305666
-0.281277
-0.258236
-0.236741
-0.216824
-0.198431
-0.181469
-0.165832
-0.151415
-0.138116
-0.125841
-0.114503
-0.104015
-0.0943046
-0.0853481
-0.0769137
-0.480469
-0.467245
-0.456428
-0.443038
-0.425948
-0.405136
-0.381166
-0.355191
-0.328518
-0.302251
-0.277133
-0.253561
-0.231682
-0.211492
-0.192908
-0.17582
-0.16011
-0.145662
-0.132368
-0.120129
-0.108852
-0.0984457
-0.0888395
-0.0799984
-0.0716658
-0.486086
-0.472631
-0.461387
-0.447121
-0.428707
-0.406297
-0.380697
-0.353261
-0.325401
-0.298229
-0.272448
-0.248403
-0.22619
-0.205769
-0.187032
-0.169851
-0.154098
-0.139648
-0.126386
-0.114207
-0.103013
-0.0927087
-0.0832258
-0.0745153
-0.0663045
-0.490923
-0.477286
-0.465598
-0.450403
-0.430611
-0.406581
-0.379377
-0.350542
-0.321572
-0.293575
-0.267205
-0.242747
-0.220252
-0.199643
-0.180792
-0.163554
-0.14779
-0.133367
-0.120164
-0.108069
-0.0969811
-0.0868003
-0.0774602
-0.0688986
-0.0608345
-0.494878
-0.481106
-0.468957
-0.452784
-0.431573
-0.405922
-0.377157
-0.347
-0.317008
-0.28827
-0.261384
-0.236577
-0.213853
-0.193103
-0.174179
-0.156921
-0.14118
-0.126815
-0.113698
-0.101714
-0.0907541
-0.0807173
-0.0715391
-0.0631463
-0.0552597
-0.497848
-0.483989
-0.471361
-0.45417
-0.431515
-0.40426
-0.373994
-0.342603
-0.311685
-0.282296
-0.254971
-0.229879
-0.206981
-0.186139
-0.167184
-0.149945
-0.134261
-0.119986
-0.106985
-0.0951368
-0.0843294
-0.0744573
-0.0654595
-0.0572509
-0.0495611
-0.499735
-0.485836
-0.472714
-0.454473
-0.430363
-0.401539
-0.369852
-0.337325
-0.305584
-0.275635
-0.24795
-0.222641
-0.199626
-0.178742
-0.159801
-0.14262
-0.127031
-0.112878
-0.100022
-0.0883371
-0.0777056
-0.0680198
-0.0592218
-0.0512045
-0.0436762
-0.500444
-0.486552
-0.472924
-0.453609
-0.428053
-0.397715
-0.364697
-0.331145
-0.298687
-0.268274
-0.24031
-0.214852
-0.19178
-0.170905
-0.152024
-0.134943
-0.119485
-0.105489
-0.0928083
-0.0813136
-0.0708824
-0.0614054
-0.0528279
-0.0450134
-0.0375734
-0.499888
-0.486047
-0.471903
-0.451504
-0.424528
-0.392746
-0.358504
-0.324045
-0.290981
-0.260202
-0.232041
-0.206504
-0.183435
-0.162623
-0.14385
-0.126911
-0.111622
-0.0978166
-0.085343
-0.0740667
-0.0638608
-0.0546152
-0.0462746
-0.0386846
-0.0314133
-0.497985
-0.484239
-0.469574
-0.448093
-0.419737
-0.386601
-0.351253
-0.31601
-0.282456
-0.251409
-0.223136
-0.197592
-0.174587
-0.153893
-0.135276
-0.118521
-0.103441
-0.0898622
-0.0776272
-0.0665978
-0.0566429
-0.0476546
-0.0395798
-0.032194
-0.0251987
-0.494662
-0.481053
-0.465867
-0.443318
-0.413643
-0.379256
-0.342929
-0.307031
-0.273104
-0.24189
-0.21359
-0.188111
-0.165235
-0.144714
-0.126303
-0.109775
-0.0949434
-0.0816274
-0.0696633
-0.0589098
-0.0492315
-0.0405242
-0.0327299
-0.0255766
-0.0188839
-0.489852
-0.476422
-0.460722
-0.437132
-0.406212
-0.370692
-0.333522
-0.297104
-0.262922
-0.231643
-0.203401
-0.17806
-0.155376
-0.135085
-0.116928
-0.100678
-0.0861335
-0.0731164
-0.0614547
-0.0510049
-0.0416294
-0.0332264
-0.0257302
-0.0188347
-0.012454
-0.483501
-0.470289
-0.454088
-0.429499
-0.397425
-0.360899
-0.32303
-0.286228
-0.251912
-0.220669
-0.192571
-0.167442
-0.145013
-0.125006
-0.107151
-0.0912366
-0.0770176
-0.0643315
-0.0530049
-0.0428877
-0.0338409
-0.025765
-0.0185863
-0.0119687
-0.0059107
-0.475563
-0.462607
-0.445926
-0.420391
-0.387267
-0.349875
-0.311455
-0.274407
-0.240077
-0.208971
-0.181103
-0.156259
-0.134152
-0.114488
-0.0969951
-0.0814426
-0.0675969
-0.0552794
-0.0443197
-0.0345638
-0.0258712
-0.0181453
-0.0113036
-0.00498025
0.00074034
-0.466003
-0.453341
-0.436207
-0.409793
-0.375735
-0.337624
-0.298804
-0.26165
-0.227425
-0.196557
-0.169003
-0.14452
-0.122802
-0.103538
-0.0864558
-0.0713113
-0.0578783
-0.0459667
-0.0354058
-0.0260397
-0.0177267
-0.0103733
-0.00388739
0.00212629
0.00749251
-0.454798
-0.442466
-0.424912
-0.397698
-0.362834
-0.324156
-0.285092
-0.24797
-0.213967
-0.183436
-0.156282
-0.13224
-0.110969
-0.0921635
-0.0755418
-0.0608525
-0.0478709
-0.0364014
-0.0262713
-0.0173231
-0.00941458
-0.00245604
0.00365589
0.00934506
0.0143391
-0.441935
-0.429967
-0.412036
-0.384111
-0.348576
-0.309491
-0.270336
-0.233384
-0.19972
-0.169624
-0.14296
-0.119421
-0.0986657
-0.080376
-0.0642647
-0.0500764
-0.0375854
-0.0265933
-0.0169255
-0.00842275
-0.000943345
0.00559861
0.011319
0.0166689
0.0212732
-0.427411
-0.415842
-0.397582
-0.369045
-0.332983
-0.293651
-0.254561
-0.217913
-0.184704
-0.155144
-0.129046
-0.106084
-0.0859076
-0.0681892
-0.0526377
-0.038995
-0.0270336
-0.0165535
-0.00737861
0.000651463
0.0076776
0.0137818
0.0190939
0.0240898
0.0282872
-0.411238
-0.400099
-0.381566
-0.352523
-0.316085
-0.276669
-0.237797
-0.201585
-0.168943
-0.14001
-0.11456
-0.0922478
-0.0727114
-0.0556191
-0.0406761
-0.0276222
-0.0162286
-0.0062944
0.00235755
0.0098885
0.0164378
0.0220839
0.0269712
0.0315985
0.0353728
-0.393435
-0.382758
-0.364013
-0.334578
-0.297917
-0.258584
-0.220077
-0.18443
-0.152464
-0.124249
-0.0995269
-0.0779322
-0.0590964
-0.0426837
-0.0283965
-0.0159735
-0.00518505
0.00417035
0.0122702
0.0192763
0.0253259
0.030494
0.0349409
0.0391852
0.0425212
-0.374035
-0.363849
-0.344959
-0.315251
-0.278525
-0.239435
-0.201438
-0.166483
-0.135296
-0.107889
-0.0839708
-0.0631607
-0.0450844
-0.029403
-0.0158176
-0.00406621
0.00608117
0.0148259
0.0223454
0.0288017
0.0343294
0.0390007
0.0429921
0.0468387
0.0497224
-0.353078
-0.343413
-0.324449
-0.294599
-0.257974
-0.219254
-0.181922
-0.147782
-0.117475
-0.0909617
-0.0679206
-0.0479595
-0.0306992
-0.0157991
-0.00295973
0.00808103
0.0175527
0.025656
0.0325682
0.0384507
0.0434351
0.0475913
0.0511128
0.0545472
0.0569654
-0.330617
-0.321498
-0.302538
-0.272691
-0.236322
-0.198084
-0.161575
-0.128369
-0.0990393
-0.0735009
-0.0514075
-0.032357
-0.0159669
-0.00189592
0.0101552
0.020448
0.0292108
0.0366436
0.0429226
0.0482082
0.0526286
0.0562526
0.0592904
0.0622975
0.0642379
-0.306708
-0.298165
-0.279295
-0.249581
-0.21354
-0.17606
-0.140456
-0.10829
-0.0800301
-0.055544
-0.0344654
-0.016384
-0.00091567
0.0122808
0.0235037
0.033013
0.0410359
0.0477703
0.0533917
0.0580585
0.061895
0.0649702
0.0675107
0.0700741
0.0715257
-0.281419
-0.273495
-0.254819
-0.225264
-0.189793
-0.153183
-0.118621
-0.0875957
-0.0604918
-0.0371313
-0.0171305
-7.35897e-05
0.0144244
0.0267036
0.0370605
0.0457532
0.0530067
0.059017
0.0639577
0.0679849
0.0712187
0.0737294
0.0757588
0.0778589
0.0788086
-0.254823
-0.247572
-0.22921
-0.199796
-0.165133
-0.129525
-0.0961266
-0.0663398
-0.0404718
-0.0183053
0.000558425
0.0165392
0.0300215
0.0413434
0.0507992
0.0586445
0.0651014
0.0703635
0.0746022
0.0779705
0.0805835
0.0825149
0.0840193
0.0856323
0.08606
-0.226996
-0.220464
-0.202298
-0.173531
-0.13965
-0.105159
-0.0730367
-0.044578
-0.0200203
0.000888669
0.0185605
0.0334171
0.0458417
0.0561696
0.064692
0.0716614
0.0772968
0.0817888
0.0853063
0.0879976
0.0899729
0.0913113
0.0922791
0.0933797
0.0932633
-0.198011
-0.192295
-0.174415
-0.146361
-0.113419
-0.080161
-0.0494164
-0.0223687
0.000810005
0.0204033
0.0368328
0.0505214
0.0618498
0.0711501
0.0787097
0.0847775
0.089569
0.0932714
0.0960501
0.0980478
0.0993687
0.100103
0.100528
0.101092
0.100413
-0.167959
-0.163165
-0.145673
-0.118382
-0.0865232
-0.0546084
-0.025334
0.000226923
0.0219644
0.0401891
0.0553307
0.0678115
0.0780091
0.0862515
0.0928221
0.0979656
0.101893
0.104789
0.106814
0.108102
0.108753
0.108877
0.108756
0.108738
0.107417
-0.137117
-0.133069
-0.116132
-0.0897009
-0.0590473
-0.0285804
-0.000860308
0.0231457
0.0433859
0.0601947
0.0740076
0.0852454
0.0942815
0.101439
0.106998
0.111197
0.114244
0.116318
0.117576
0.118142
0.118113
0.117627
0.11695
0.116208
0.113987
-0.105507
-0.102161
-0.0858881
-0.0604204
-0.0310827
-0.00215842
0.0239317
0.0463224
0.0650158
0.0803671
0.0928157
0.10278
0.110628
0.116678
0.121205
0.124443
0.126595
0.127837
0.128317
0.12815
0.12744
0.126359
0.125087
0.123365
0.119912
-0.0731954
-0.0705922
-0.0550496
-0.0306444
-0.00272295
0.0245737
0.0489671
0.0696899
0.0867938
0.100652
0.111706
0.12037
0.127007
0.131931
0.13541
0.137674
0.13892
0.139319
0.139013
0.13811
0.136728
0.135065
0.133135
0.130252
0.125813
-0.0403075
-0.0384822
-0.0237292
-0.00047871
0.0259361
0.0515306
0.0741695
0.0931796
0.108658
0.120993
0.130627
0.13797
0.143379
0.147162
0.14958
0.150858
0.15119
0.15074
0.149643
0.148004
0.145958
0.143705
0.14104
0.137046
0.133606
-0.00697153
-0.00594938
0.00795715
0.029969
0.0547972
0.0786253
0.0994612
0.116722
0.130546
0.141335
0.149529
0.155534
0.159701
0.162331
0.163679
0.163966
0.163378
0.162074
0.160185
0.157812
0.155104
0.152226
0.148825
0.144196
0.141363
0.0266854
0.0268855
0.0398917
0.0605899
0.0837621
0.10577
0.124764
0.140246
0.152395
0.161619
0.16836
0.173016
0.175931
0.177401
0.177674
0.176965
0.175454
0.173296
0.170614
0.167512
0.164141
0.160621
0.156548
0.15149
0.148701
0.0605352
0.0598992
0.0719556
0.0912741
0.112732
0.132876
0.149998
0.163682
0.174139
0.181788
0.187067
0.190367
0.192026
0.192332
0.191528
0.189822
0.18739
0.184379
0.180908
0.177081
0.173044
0.168883
0.164202
0.158778
0.155775
0.0944488
0.0929671
0.104029
0.121912
0.141607
0.159854
0.175083
0.186956
0.195715
0.201784
0.205597
0.207539
0.207942
0.207086
0.205207
0.202507
0.199156
0.195296
0.191041
0.186494
0.181794
0.177001
0.171749
0.165949
0.162599
0.128297
0.125963
0.135994
0.152393
0.170289
0.186617
0.199942
0.209998
0.217057
0.221547
0.223897
0.224486
0.223637
0.221623
0.218675
0.214987
0.210724
0.206021
0.20099
0.19573
0.190371
0.184958
0.179159
0.172963
0.169194
0.16195
0.158763
0.167729
0.182609
0.19868
0.213075
0.224493
0.232737
0.238102
0.24102
0.241916
0.241159
0.239067
0.235905
0.231897
0.22723
0.222063
0.216528
0.210729
0.204764
0.198754
0.192734
0.186401
0.179794
0.175565
0.19528
0.19124
0.199117
0.21245
0.226681
0.239141
0.248659
0.255101
0.258785
0.260145
0.259599
0.257512
0.25419
0.249892
0.244836
0.239203
0.233146
0.226789
0.220235
0.213575
0.206924
0.200309
0.193451
0.186425
0.181714
0.228158
0.223271
0.230041
0.241811
0.254196
0.264729
0.272361
0.27702
0.279043
0.278865
0.276897
0.273496
0.268962
0.263546
0.257459
0.250876
0.243943
0.23678
0.229483
0.222142
0.214861
0.207664
0.200291
0.192843
0.187636
0.260459
0.254734
0.260386
0.270585
0.281131
0.289754
0.295524
0.298426
0.298814
0.297123
0.293757
0.289066
0.283342
0.276829
0.269731
0.262216
0.254425
0.246473
0.23845
0.230442
0.222546
0.21478
0.206903
0.199036
0.193327
0.29206
0.285507
0.290039
0.298669
0.307392
0.314131
0.318072
0.31925
0.318036
0.314863
0.31013
0.304177
0.297289
0.289704
0.281619
0.273194
0.264566
0.255844
0.247113
0.238454
0.229959
0.221639
0.213272
0.204991
0.198779
0.322838
0.315474
0.318888
0.325964
0.332889
0.33778
0.339931
0.339426
0.336649
0.332032
0.325965
0.318783
0.310763
0.302135
0.293088
0.28378
0.274339
0.264868
0.25545
0.24616
0.237082
0.228224
0.219382
0.210696
0.203985
0.352676
0.34452
0.346828
0.35237
0.357534
0.360622
0.36103
0.35889
0.354595
0.348576
0.341216
0.332842
0.323724
0.314084
0.304108
0.293944
0.283715
0.273521
0.263439
0.253539
0.243898
0.23452
0.22522
0.21614
0.208936
0.38146
0.372533
0.373753
0.377793
0.381242
0.382579
0.3813
0.377579
0.371818
0.364444
0.355835
0.346311
0.336134
0.32552
0.314646
0.303657
0.292671
0.28178
0.271058
0.260571
0.250389
0.240511
0.230771
0.221312
0.213624
0.409077
0.399407
0.399563
0.402143
0.40393
0.403577
0.400675
0.395432
0.388261
0.379586
0.369779
0.35915
0.347956
0.336407
0.324673
0.312894
0.301181
0.289623
0.278289
0.267239
0.256538
0.246183
0.236023
0.226198
0.21804
0.435423
0.425037
0.424163
0.425331
0.425519
0.423546
0.419089
0.412391
0.403873
0.393956
0.383003
0.371319
0.359155
0.346713
0.33416
0.321627
0.309222
0.297028
0.28511
0.273525
0.26233
0.251521
0.240963
0.23079
0.222177
0.460396
0.449327
0.447461
0.447274
0.445934
0.442418
0.436481
0.428401
0.418604
0.407506
0.395466
0.382782
0.369698
0.35641
0.343078
0.329831
0.31677
0.303974
0.291504
0.279413
0.26775
0.256511
0.245578
0.235074
0.226026
0.483899
0.472182
0.469368
0.467893
0.465104
0.460128
0.452795
0.44341
0.432406
0.420195
0.40713
0.393503
0.379551
0.365466
0.351402
0.337483
0.323805
0.310443
0.297454
0.284886
0.272784
0.261142
0.249857
0.239043
0.229579
0.50584
0.493515
0.489804
0.487113
0.482962
0.476615
0.467973
0.457367
0.445234
0.431981
0.417958
0.403449
0.388685
0.373855
0.359107
0.34456
0.330305
0.316415
0.302942
0.28993
0.277418
0.2654
0.25379
0.242684
0.23283
0.526135
0.513241
0.508692
0.504864
0.499444
0.491823
0.481966
0.470227
0.457045
0.442827
0.427914
0.412587
0.397072
0.381551
0.366169
0.35104
0.336253
0.321873
0.307952
0.294529
0.281639
0.269275
0.257364
0.24599
0.235771
0.544704
0.531286
0.525959
0.521081
0.514492
0.505699
0.494725
0.481944
0.4678
0.452695
0.436966
0.420889
0.404684
0.38853
0.372568
0.356905
0.341629
0.326802
0.312471
0.298673
0.285436
0.272756
0.260571
0.248951
0.238395
0.561474
0.547577
0.541539
0.535705
0.528051
0.518195
0.506206
0.492481
0.477464
0.461554
0.445085
0.428327
0.411498
0.39477
0.378281
0.362137
0.346418
0.331187
0.316485
0.302347
0.288798
0.275832
0.263402
0.251559
0.240698
0.576378
0.562051
0.555374
0.548681
0.540074
0.529264
0.516369
0.501799
0.486002
0.469374
0.452243
0.434878
0.417491
0.400251
0.383293
0.366718
0.350606
0.335013
0.319982
0.305542
0.291715
0.278496
0.265848
0.253808
0.242674
0.589355
0.57465
0.567409
0.55996
0.550515
0.538869
0.525178
0.509867
0.493385
0.476127
0.458417
0.440519
0.422642
0.404954
0.387585
0.370634
0.354177
0.33827
0.322951
0.308248
0.294178
0.28074
0.267902
0.25569
0.244317
0.600354
0.585321
0.577597
0.569499
0.559336
0.546973
0.532601
0.516656
0.499588
0.48179
0.463584
0.44523
0.426935
0.408864
0.391144
0.373872
0.357121
0.340946
0.325382
0.310455
0.29618
0.282555
0.269558
0.2572
0.245624
0.609328
0.594022
0.585896
0.57726
0.566502
0.553546
0.53861
0.522139
0.504587
0.486342
0.467725
0.448994
0.430355
0.411967
0.393957
0.37642
0.359428
0.343031
0.327267
0.312156
0.297713
0.283937
0.270809
0.258333
0.246592
0.616238
0.600713
0.59227
0.583212
0.571985
0.558562
0.543181
0.526297
0.508362
0.489765
0.470826
0.451798
0.432887
0.41425
0.396013
0.378269
0.361087
0.344519
0.328598
0.313346
0.298773
0.284879
0.271651
0.259084
0.247217
0.621052
0.605366
0.596693
0.587328
0.575762
0.562
0.546297
0.529111
0.510899
0.492046
0.472872
0.453629
0.434521
0.415705
0.397304
0.379411
0.362094
0.345403
0.329371
0.314017
0.299353
0.285378
0.272081
0.259451
0.247497
0.623747
0.607956
0.599143
0.58959
0.577816
0.563844
0.547941
0.530569
0.512185
0.493174
0.473854
0.454479
0.43525
0.416324
0.397823
0.379839
0.362442
0.345678
0.32958
0.314168
0.299452
0.28543
0.272095
0.25943
0.24743
0.624306
0.608467
0.599603
0.589984
0.578133
0.564083
0.548104
0.530662
0.512212
0.493141
0.473766
0.454342
0.435067
0.416102
0.397566
0.379551
0.362127
0.34534
0.329223
0.313795
0.299066
0.285034
0.271691
0.259019
0.247015
0.622719
0.606891
0.598067
0.588501
0.576707
0.562711
0.546781
0.529384
0.510975
0.491943
0.472604
0.453213
0.433971
0.415036
0.39653
0.378544