/*--------------------------------*- C++ -*----------------------------------*\
  =========                 |
  \\      /  F ield         | OpenFOAM: The Open Source CFD Toolbox
   \\    /   O peration     | Website:  https://openfoam.org
    \\  /    A nd           | Version:  7
     \\/     M anipulation  |
\*---------------------------------------------------------------------------*/
FoamFile
{
    version     2.0;
    format      ascii;
    class       surfaceScalarField;
    location    "165";
    object      phi;
}
// * * * * * * * * * * * * * * * * * * * * * * * * * * * * * * * * * * * * * //

dimensions      [0 3 -1 0 0 0 0];

internalField   nonuniform List<scalar> 
63130
(
-4.39546e-06
-5.68681e-05
6.12635e-05
-1.57705e-05
-0.000127195
0.00013857
-3.31103e-05
-0.000164287
0.000181626
-5.56266e-05
-0.000173497
0.000196013
-8.2742e-05
-0.000160513
0.000187628
-0.000114062
-0.000130658
0.000161978
-0.000149319
-8.82056e-05
0.000123463
-0.000188318
-3.58463e-05
7.48453e-05
-0.000230877
2.55507e-05
1.70082e-05
-0.000276791
9.68486e-05
-5.0935e-05
-0.000325799
0.000180268
-0.00013126
-0.00037756
0.000278877
-0.000227116
-0.000431613
0.000396102
-0.000342049
-0.000487323
0.000535349
-0.00047964
-0.000543813
0.000699719
-0.000643229
-0.000599883
0.000891736
-0.000835666
-0.000653929
0.001113
-0.00105895
-0.000703855
0.00136368
-0.00131376
-0.000746992
0.00164188
-0.00159875
-0.000780042
0.00194288
-0.00190983
-0.000799033
0.00225832
-0.00223933
-0.000799375
0.00257564
-0.0025753
-0.000776033
0.00287793
-0.00290127
-0.000723661
0.00314434
-0.00319672
0.00335248
-0.00343843
-0.000637713
-4.43011e-06
-5.2438e-05
-1.57941e-05
-0.000115831
-3.29939e-05
-0.000147087
-5.51944e-05
-0.000151296
-8.18001e-05
-0.000133907
-0.000112416
-0.000100043
-0.000146779
-5.38421e-05
-0.000184689
2.06314e-06
-0.000225937
6.6799e-05
-0.000270263
0.000141175
-0.000317318
0.000227324
-0.000366642
0.000328201
-0.000417622
0.000447083
-0.000469447
0.000587174
-0.00052103
0.000751302
-0.000570926
0.000941632
-0.00061724
0.00115931
-0.000657537
0.00140398
-0.000688769
0.00167312
-0.000707215
0.00196133
-0.000708478
0.00225958
-0.00068754
0.0025547
-0.000639025
0.00282941
-0.000557472
0.00306279
0.0032327
-0.000437691
-4.39545e-06
-4.80425e-05
-1.55869e-05
-0.00010464
-3.24154e-05
-0.000130258
-5.4009e-05
-0.000129703
-7.97553e-05
-0.000108161
-0.000109254
-7.05447e-05
-0.000142237
-2.08585e-05
-0.000178489
3.83146e-05
-0.000217763
0.000106073
-0.00025973
0.000183142
-0.000303938
0.000271532
-0.000349787
0.00037405
-0.000396499
0.000493794
-0.00044306
0.000633736
-0.00048816
0.000796401
-0.000530094
0.000983566
-0.000566679
0.0011959
-0.000595165
0.00143246
-0.000612168
0.00169012
-0.000613633
0.00196279
-0.000594863
0.00224081
-0.000550596
0.00251044
-0.000475275
0.00275409
-0.000363715
0.00295123
0.00307902
-0.00021003
-4.29848e-06
-4.3744e-05
-1.51731e-05
-9.3765e-05
-3.14237e-05
-0.000114008
-5.21498e-05
-0.000108976
-7.67217e-05
-8.35889e-05
-0.000104727
-4.25392e-05
-0.000135886
1.03006e-05
-0.000169956
7.23847e-05
-0.000206645
0.000142762
-0.000245543
0.00022204
-0.000286085
0.000312074
-0.000327522
0.000415488
-0.000368893
0.000535164
-0.000408975
0.000673818
-0.000446221
0.000833647
-0.000478672
0.00101602
-0.000503873
0.0012211
-0.00051879
0.00144738
-0.000519769
0.0016911
-0.00050252
0.00194554
-0.000462188
0.00220048
-0.000393468
0.00244172
-0.000290774
0.0026514
-0.000149184
0.00280964
0.00289353
3.63033e-05
-4.14803e-06
-3.9596e-05
-1.45824e-05
-8.33306e-05
-3.00787e-05
-9.85115e-05
-4.97135e-05
-8.93417e-05
-7.28382e-05
-6.04642e-05
-9.9022e-05
-1.63554e-05
-0.000127963
3.92415e-05
-0.000159384
0.000103806
-0.000192939
0.000176316
-0.000228134
0.000257234
-0.000264284
0.000348225
-0.000300486
0.000451689
-0.00033559
0.000570268
-0.000368161
0.000706389
-0.000396419
0.000861905
-0.00041816
0.00103776
-0.000430681
0.00123362
-0.000430716
0.00144742
-0.000414409
0.00167479
-0.000377341
0.00190848
-0.000314632
0.00213777
-0.000221126
0.00234821
-9.15231e-05
0.0025218
7.87589e-05
0.00263936
0.00267632
0.000295965
-3.95438e-06
-3.56416e-05
-1.38495e-05
-7.34355e-05
-2.84493e-05
-8.39116e-05
-4.68116e-05
-7.09794e-05
-6.82649e-05
-3.90109e-05
-9.23527e-05
7.73237e-06
-0.000118742
6.56304e-05
-0.000147114
0.000132178
-0.000177062
0.000206264
-0.000208006
0.000288179
-0.000239143
0.000379362
-0.000269415
0.000481961
-0.000297487
0.00059834
-0.000321716
0.000730619
-0.000340099
0.000880288
-0.000350208
0.00104787
-0.000349127
0.00123254
-0.000333407
0.0014317
-0.000299068
0.00164045
-0.000241656
0.00185106
-0.000156386
0.0020525
-3.84003e-05
0.00223023
0.000117357
0.00236604
0.000313991
0.00244273
0.00243078
0.000559536
-3.72888e-06
-3.19127e-05
-1.30121e-05
-6.41524e-05
-2.66113e-05
-7.03123e-05
-4.35664e-05
-5.40243e-05
-6.31784e-05
-1.93989e-05
-8.49567e-05
2.95107e-05
-0.000108528
8.92019e-05
-0.000133526
0.000157176
-0.00015948
0.000232218
-0.000185725
0.000314424
-0.000211342
0.000404979
-0.000235127
0.000505746
-0.000255571
0.000618784
-0.000270835
0.000745882
-0.000278712
0.000888165
-0.000276575
0.00104573
-0.000261335
0.0012173
-0.000229417
0.00139978
-0.000176782
0.00158782
-9.90257e-05
0.00177331
8.43896e-06
0.00194504
0.000150018
0.00208865
0.000330457
0.0021856
0.000551442
0.00222174
0.00216028
0.000821934
-3.48351e-06
-2.84292e-05
-1.21101e-05
-5.55258e-05
-2.46446e-05
-5.77779e-05
-4.01074e-05
-3.85615e-05
-5.77664e-05
-1.73986e-06
-7.70882e-05
4.88325e-05
-9.7651e-05
0.000109765
-0.000119034
0.000178559
-0.0001407
0.000253884
-0.000161902
0.000335626
-0.000181616
0.000424692
-0.000198503
0.000522634
-0.000210897
0.000631177
-0.000216782
0.000751768
-0.000213773
0.000885156
-0.000199077
0.00103103
-0.000169474
0.00118769
-0.000121317
0.00135162
-5.05652e-05
0.00151706
4.70257e-05
0.00167572
0.000175845
0.00181622
0.0003397
0.00192479
0.000543019
0.00198228
0.000785893
0.00197887
0.00186819
0.00107799
-3.23042e-06
-2.51988e-05
-1.11841e-05
-4.75721e-05
-2.26303e-05
-4.63317e-05
-3.65669e-05
-2.46249e-05
-5.22217e-05
1.39149e-05
-6.90099e-05
6.56206e-05
-8.64528e-05
0.000127208
-0.000104068
0.000196174
-0.000121254
0.00027107
-0.000137185
0.000351557
-0.000150741
0.000438249
-0.000160469
0.000532361
-0.000164564
0.000635272
-0.000160863
0.000748067
-0.000146833
0.000871127
-0.000119551
0.00100375
-7.57085e-05
0.00114385
-1.16318e-05
0.00128755
7.66026e-05
0.00142883
0.000193116
0.0015592
0.000341987
0.00166735
0.000526367
0.00174041
0.000750404
0.00175824
0.00101244
0.00171683
0.0015578
0.00132283
-2.98151e-06
-2.22173e-05
-1.02739e-05
-4.02797e-05
-2.06484e-05
-3.59571e-05
-3.30756e-05
-1.21977e-05
-4.67359e-05
2.75752e-05
-6.09849e-05
7.98696e-05
-7.52789e-05
0.000141502
-8.90699e-05
0.000209965
-0.000101688
0.000283688
-0.000112237
0.000362106
-0.000119515
0.000445527
-0.000121972
0.000534818
-0.000117694
0.000630994
-0.000104398
0.000734771
-7.94462e-05
0.000846175
-3.98073e-05
0.000964114
1.78271e-05
0.00108622
9.71169e-05
0.00120826
0.000201909
0.00132404
0.000336015
0.0014251
0.000503224
0.00150014
0.000705976
0.00153766
0.000948241
0.00151598
0.00122635
0.00143872
0.00123231
0.00155184
-2.74795e-06
-1.94693e-05
-9.41664e-06
-3.3611e-05
-1.87742e-05
-2.65996e-05
-2.97575e-05
-1.2144e-06
-4.14923e-05
3.931e-05
-5.32671e-05
9.16443e-05
-6.44662e-05
0.000152701
-7.44706e-05
0.00021997
-8.25432e-05
0.000291761
-8.77216e-05
0.000367284
-8.87363e-05
0.000446541
-8.39626e-05
0.000530045
-7.14043e-05
0.000618435
-4.86943e-05
0.000712061
-1.3099e-05
0.00081058
3.83634e-05
0.000912651
0.000109103
0.00101548
0.000202659
0.0011147
0.000322701
0.001204
0.000472741
0.00127506
0.000656237
0.00131664
0.000874873
0.00131902
0.00113267
0.00125818
0.00142352
0.00114787
0.000894628
0.0017612
-2.53983e-06
-1.69295e-05
-8.64606e-06
-2.75048e-05
-1.70757e-05
-1.81699e-05
-2.67251e-05
8.43498e-06
-3.66588e-05
4.92437e-05
-4.60913e-05
0.000101077
-5.43291e-05
0.000160939
-6.06784e-05
0.000226319
-6.43345e-05
0.000295417
-6.42751e-05
0.000367225
-5.91761e-05
0.000441442
-4.73598e-05
0.000518228
-2.67773e-05
0.000597853
4.98005e-06
0.000680304
5.0655e-05
0.000764905
0.000113316
0.000849991
0.000196231
0.000932562
0.000302839
0.00100809
0.000436599
0.00107024
0.000600686
0.00111097
0.000798212
0.00111912
0.0010301
0.00108714
0.00130075
0.000987539
0.00160122
0.000847388
0.000546816
0.00194904
-2.3657e-06
-1.45638e-05
-7.99062e-06
-2.18799e-05
-1.56108e-05
-1.05497e-05
-2.40748e-05
1.6899e-05
-3.23802e-05
5.75491e-05
-3.96625e-05
0.000108359
-4.5146e-05
0.000166422
-4.80591e-05
0.000229232
-4.75298e-05
0.000294888
-4.24813e-05
0.000362177
-3.15466e-05
0.000430507
-1.30146e-05
0.000499696
1.51834e-05
0.000569655
5.54729e-05
0.000640014
0.000110593
0.000709784
0.000183555
0.000777029
0.000277546
0.000838571
0.000395837
0.000889801
0.000541649
0.000924424
0.000717823
0.000934795
0.000927136
0.000909806
0.00116985
0.000844419
0.0014511
0.000706294
0.00175908
0.000539408
0.000189268
0.00211662
-2.23222e-06
-1.23316e-05
-7.47237e-06
-1.66397e-05
-1.44243e-05
-3.5978e-06
-2.18817e-05
2.43564e-05
-2.87708e-05
6.44381e-05
-3.41449e-05
0.000113733
-3.71434e-05
0.000169421
-3.69156e-05
0.000229004
-3.25223e-05
0.000290495
-2.28368e-05
0.000352491
-6.45864e-06
0.000414129
1.83341e-05
0.000474904
5.36172e-05
0.000534372
0.000101794
0.000591837
0.000165564
0.000646015
0.000247858
0.000694735
0.000351744
0.000734685
0.000480314
0.000761232
0.000636553
0.000768186
0.000823028
0.00074832
0.00104224
0.00069059
0.00129411
0.00059255
0.00158469
0.000415714
0.00190006
0.00022404
-0.000180022
0.00226935
-2.14384e-06
-1.01877e-05
-7.10572e-06
-1.16778e-05
-1.35453e-05
2.84183e-06
-2.01955e-05
3.10066e-05
-2.59076e-05
7.01503e-05
-2.96516e-05
0.000117477
-3.04814e-05
0.00017025
-2.74665e-05
0.000225989
-1.9602e-05
0.00028263
-5.71326e-06
0.000338602
1.56213e-05
0.000392795
4.61337e-05
0.000444391
8.78772e-05
0.000492628
0.000143218
0.000536497
0.00021479
0.000574443
0.00030543
0.000604095
0.000418082
0.000622033
0.000555675
0.000623639
0.000721013
0.000602848
0.000916531
0.000552802
0.00114459
0.000462529
0.00140534
0.000331804
0.00170562
0.000115436
0.00203113
-0.000101471
-0.000565464
0.00241657
-2.10247e-06
-8.08528e-06
-6.89647e-06
-6.88384e-06
-1.29857e-05
8.93107e-06
-1.90365e-05
3.70573e-05
-2.38239e-05
7.49377e-05
-2.62348e-05
0.000119888
-2.52384e-05
0.000169254
-1.98255e-05
0.000220577
-8.92529e-06
0.00027173
8.68042e-06
0.000320997
3.44394e-05
0.000367036
7.00786e-05
0.000408752
0.000117628
0.000445079
0.000179406
0.000474718
0.000257983
0.000495866
0.000356111
0.000505967
0.000476638
0.000501506
0.000622404
0.000477872
0.00079615
0.000429102
0.00100041
0.000348538
0.00123762
0.000225326
0.0015089
6.05155e-05
0.00182133
-0.000196992
0.0021627
-0.000442842
-0.000972672
0.00256991
-2.10728e-06
-5.978e-06
-6.84103e-06
-2.15009e-06
-1.27376e-05
1.48276e-05
-1.83923e-05
4.27121e-05
-2.25037e-05
7.9049e-05
-2.38769e-05
0.000121261
-2.13984e-05
0.000166776
-1.39807e-05
0.000213159
-4.87561e-07
0.000258237
2.03476e-05
0.000300161
4.99982e-05
0.000337385
9.01946e-05
0.000368556
0.000142949
0.000392324
0.000210551
0.000407117
0.000295528
0.000410888
0.000400598
0.000400897
0.000528594
0.00037351
0.000682398
0.000324068
0.000864877
0.000246623
0.00107896
0.000134453
0.00132736
-2.30714e-05
0.00161294
-0.000225064
0.00194185
-0.000525897
0.00230658
-0.000807573
-0.00140595
0.00273985
-2.15453e-06
-3.82347e-06
-6.92591e-06
2.62129e-06
-1.27729e-05
2.06747e-05
-1.82166e-05
4.81557e-05
-2.18787e-05
8.27112e-05
-2.24852e-05
0.000121868
-1.88411e-05
0.000163132
-9.78074e-06
0.000204098
5.90215e-06
0.000242554
2.95305e-05
0.000276533
6.26154e-05
0.0003043
0.00010691
0.000324261
0.000164439
0.000334796
0.000237499
0.000334057
0.000328643
0.000319744
0.000440643
0.000288898
0.00057645
0.000237703
0.000739168
0.000161349
0.00093201
5.37804e-05
0.00115856
-9.20946e-05
0.00142196
-0.000286471
0.00172701
-0.000530115
0.00207754
-0.000876425
0.00247227
-0.0012023
-0.00186531
0.00293163
-2.23754e-06
-1.58593e-06
-7.12783e-06
7.51158e-06
-1.30434e-05
2.65902e-05
-1.8428e-05
5.35403e-05
-2.18274e-05
8.61107e-05
-2.18891e-05
0.000121929
-1.73367e-05
0.000158579
-6.92265e-06
0.000193684
1.0638e-05
0.000224993
3.67399e-05
0.000250431
7.29584e-05
0.000268082
0.000121106
0.000276113
0.000183271
0.000272631
0.000261834
0.000255494
0.000359466
0.000222112
0.000479123
0.00016924
0.000624036
9.27908e-05
0.000797713
-1.2328e-05
0.00100389
-0.000152394
0.00124685
-0.000335061
0.00153013
-0.000569748
0.0018598
-0.000859785
0.00223596
-0.00125259
0.00266322
-0.00162956
-0.00234443
0.00314235
-2.34688e-06
7.60947e-07
-7.4142e-06
1.25789e-05
-1.34814e-05
3.26574e-05
-1.89126e-05
5.89715e-05
-2.21771e-05
8.93752e-05
-2.18428e-05
0.000121595
-1.65486e-05
0.000153285
-4.95586e-06
0.000182092
1.43146e-05
0.000205723
4.2757e-05
0.000221989
8.20506e-05
0.000228788
0.000134125
0.000224039
0.000201207
0.000205549
0.000285858
0.000170843
0.000390993
0.000116977
0.00051989
4.03424e-05
0.0006762
-6.35184e-05
0.000863941
-0.000200069
0.00108737
-0.000375819
0.00135121
-0.000598906
0.00165894
-0.000877477
0.00201635
-0.0012172
0.00241885
-0.00165509
0.00287458
-0.0020853
-0.00283088
0.00336103
-2.47066e-06
3.23161e-06
-7.74436e-06
1.78526e-05
-1.40027e-05
3.89157e-05
-1.95278e-05
6.44966e-05
-2.27099e-05
9.25573e-05
-2.20333e-05
0.000120919
-1.60432e-05
0.000147295
-3.29477e-06
0.000169343
1.77121e-05
0.000184716
4.86095e-05
0.000191091
9.12364e-05
0.000186161
0.000147712
0.000167564
0.000220497
0.000132763
0.000312444
7.88962e-05
0.000426825
2.59566e-06
0.000567349
-0.000100182
0.000738131
-0.0002343
0.000943628
-0.000405566
0.00118834
-0.000620532
0.00147676
-0.000887321
0.00181148
-0.0012122
0.00219596
-0.00160167
0.00262064
-0.00207977
0.00309379
-0.00255845
-0.00330865
0.00357156
-2.59514e-06
5.82675e-06
-8.07153e-06
2.3329e-05
-1.45102e-05
4.53545e-05
-2.01085e-05
7.00949e-05
-2.31725e-05
9.56213e-05
-2.20942e-05
0.00011984
-1.53103e-05
0.000140511
-1.24493e-06
0.000155278
2.1756e-05
0.000161715
5.5515e-05
0.000157332
0.000102097
0.000139579
0.000163894
0.000105766
0.000243696
5.29619e-05
0.000344737
-2.21452e-05
0.000470722
-0.00012339
0.000625793
-0.000255252
0.000814415
-0.000422923
0.00104116
-0.00063231
0.00131019
-0.000889562
0.00162473
-0.00120186
0.0019855
-0.00157297
0.00239168
-0.00200785
0.00282944
-0.00251753
0.00330398
-0.00303299
-0.00376195
0.00375728
-2.70545e-06
8.5322e-06
-8.3453e-06
2.89688e-05
-1.48995e-05
5.19087e-05
-2.04765e-05
7.56719e-05
-2.32903e-05
9.84351e-05
-2.16267e-05
0.000118177
-1.37927e-05
0.000132677
1.94819e-06
0.000139537
2.74548e-05
0.000136208
6.47909e-05
0.000119996
0.000116319
8.8051e-05
0.000184783
3.73031e-05
0.000273369
-3.5625e-05
0.000385744
-0.00013452
0.000526017
-0.000263662
0.000698622
-0.000427857
0.000908051
-0.000632351
0.00115841
-0.000882666
0.00145269
-0.00118385
0.00179179
-0.00154096
0.00217351
-0.00195469
0.00259184
-0.00242619
0.00303007
-0.00295576
0.0034886
-0.00349152
-0.00417863
0.00390529
-2.7866e-06
1.13188e-05
-8.51485e-06
3.46971e-05
-1.50648e-05
5.84586e-05
-2.04509e-05
8.1058e-05
-2.27837e-05
0.000100768
-2.02243e-05
0.000115617
-1.09225e-05
0.000123375
7.05754e-06
0.000121557
3.58223e-05
0.000107444
7.77391e-05
7.80794e-05
0.000135528
3.02622e-05
0.000212335
-3.95038e-05
0.00031177
-0.000135061
0.000437886
-0.000260635
0.000595046
-0.000420823
0.000787661
-0.000620473
0.00101973
-0.000864415
0.00129413
-0.00115707
0.00161182
-0.00150154
0.00197047
-0.00189961
0.00236443
-0.00234865
0.00278277
-0.00284453
0.00320787
-0.00338086
0.00363539
-0.00391904
-0.0045519
0.00400866
-2.82452e-06
1.41433e-05
-8.53231e-06
4.04049e-05
-1.4906e-05
6.48323e-05
-1.98601e-05
8.60121e-05
-2.13872e-05
0.000102295
-1.75012e-05
0.000111731
-6.1636e-06
0.000112037
1.47992e-05
0.000100594
4.77882e-05
7.44546e-05
9.55206e-05
3.03469e-05
0.000161111
-3.53284e-05
0.000248117
-0.00012651
0.00036052
-0.000247464
0.000502609
-0.000402724
0.000678712
-0.000596926
0.000892748
-0.000834509
0.00114757
-0.00111923
0.00144407
-0.00145358
0.00178044
-0.0018379
0.00215077
-0.00226994
0.00254606
-0.00274393
0.00295189
-0.00325037
0.00335179
-0.00378076
0.00373814
-0.00430539
-0.00488031
0.00406656
-2.80715e-06
1.69505e-05
-8.35619e-06
4.59539e-05
-1.4336e-05
7.08122e-05
-1.85536e-05
9.02296e-05
-1.88677e-05
0.000102609
-1.31204e-05
0.000105984
9.4662e-07
9.79704e-05
2.5781e-05
7.57597e-05
6.41143e-05
3.61214e-05
0.00011904
-2.45785e-05
0.000194066
-0.000110355
0.000293109
-0.000225552
0.000420384
-0.000374739
0.000580157
-0.000562497
0.000776312
-0.000793081
0.00101171
-0.00106991
0.00128741
-0.00139493
0.00160173
-0.0017679
0.00194968
-0.00218585
0.00232212
-0.00264238
0.00270746
-0.00312928
0.00308997
-0.00363288
0.003456
-0.00414679
0.00379656
-0.00464594
-0.00516635
0.00408259
-2.72539e-06
1.96759e-05
-7.95435e-06
5.11829e-05
-1.3286e-05
7.61438e-05
-1.64121e-05
9.33557e-05
-1.50405e-05
0.000101238
-6.81771e-06
9.77612e-05
1.07624e-05
8.03903e-05
4.0451e-05
4.60711e-05
8.53275e-05
-8.75512e-06
0.000148857
-8.81081e-05
0.000234894
-0.000196392
0.000347591
-0.00033825
0.000491175
-0.000518322
0.000669537
-0.000740859
0.000885634
-0.00100918
0.00114071
-0.00132499
0.0014335
-0.00168771
0.00175943
-0.00209383
0.00211051
-0.00253693
0.0024752
-0.00300708
0.00284069
-0.00349476
0.00319208
-0.00398427
0.00351963
-0.00447434
0.00381459
-0.0049409
-0.00541519
0.00406343
-2.57375e-06
2.22496e-05
-7.30623e-06
5.59153e-05
-1.17106e-05
8.05482e-05
-1.33555e-05
9.50005e-05
-9.78188e-06
9.7664e-05
1.58063e-06
8.63987e-05
2.35072e-05
5.84637e-05
5.90659e-05
1.05124e-05
0.00011168
-6.13697e-05
0.000185147
-0.000161574
0.000283564
-0.000294808
0.000411135
-0.000465821
0.000571801
-0.000678988
0.000768672
-0.00093773
0.00100329
-0.0012438
0.00127482
-0.00159652
0.00157935
-0.00199225
0.00190956
-0.00242403
0.00225507
-0.00288244
0.00260321
-0.00335523
0.00294143
-0.00383298
0.00325744
-0.00430028
0.00354552
-0.00476242
0.00379853
-0.00519391
-0.00563339
0.00401673
-2.35076e-06
2.46004e-05
-6.40389e-06
5.99685e-05
-9.58971e-06
8.3734e-05
-9.3462e-06
9.4757e-05
-3.03405e-06
9.13518e-05
1.21493e-05
7.12153e-05
3.92605e-05
3.13525e-05
8.16804e-05
-3.19075e-05
0.000143145
-0.000122835
0.000227702
-0.000246131
0.000339543
-0.000406649
0.00048268
-0.000608959
0.000660425
-0.000856733
0.000874685
-0.00115199
0.00112516
-0.00149428
0.00140865
-0.00188
0.00171863
-0.00230223
0.0020455
-0.0027509
0.00237752
-0.00321446
0.0027023
-0.00368001
0.00300884
-0.00413951
0.0032885
-0.00457994
0.00353871
-0.00501262
0.00375512
-0.00541033
-0.00582766
0.00394939
-2.05881e-06
2.66592e-05
-5.2519e-06
6.31616e-05
-6.92839e-06
8.54105e-05
-4.38933e-06
9.2218e-05
5.19496e-06
8.17675e-05
2.4868e-05
5.15423e-05
5.79659e-05
-1.74538e-06
0.00010816
-8.21014e-05
0.000179439
-0.000194114
0.000275983
-0.000342675
0.000401884
-0.00053255
0.000560679
-0.000767753
0.000754688
-0.00105074
0.000984231
-0.00138153
0.00124688
-0.00175692
0.00153698
-0.00217011
0.00184578
-0.00261103
0.00216223
-0.00306735
0.0024744
-0.00352663
0.00277142
-0.00397702
0.00304475
-0.00441285
0.00328974
-0.00482493
0.00350548
-0.00522836
0.00368969
-0.00559453
-0.00600461
0.00386664
-1.7037e-06
2.83629e-05
-3.86572e-06
6.53236e-05
-3.75424e-06
8.52991e-05
1.47263e-06
8.69911e-05
1.48396e-05
6.84006e-05
3.96318e-05
2.67501e-05
7.94485e-05
-4.15621e-05
0.000138211
-0.000140864
0.000220072
-0.000275975
0.000329193
-0.000451796
0.000469336
-0.000672694
0.000643257
-0.000941674
0.000851939
-0.00125942
0.00109381
-0.0016234
0.00136418
-0.00202729
0.00165519
-0.00246112
0.00195649
-0.00291233
0.00225657
-0.00336743
0.00254449
-0.00381456
0.00281172
-0.00424425
0.00305269
-0.00465382
0.00326631
-0.00503856
0.00345296
-0.00541501
0.00361544
-0.00575702
-0.00614644
0.00375727
-1.29374e-06
2.96566e-05
-2.2692e-06
6.6299e-05
-1.08589e-07
8.31385e-05
8.16759e-06
7.87149e-05
2.57888e-05
5.07793e-05
5.62702e-05
-3.7313e-06
0.000103447
-8.87387e-05
0.000171425
-0.000208842
0.000264408
-0.000368958
0.00038636
-0.000573748
0.00054046
-0.000826793
0.000728372
-0.00112959
0.000949441
-0.00148049
0.00120002
-0.00187399
0.00147327
-0.00230054
0.00175958
-0.00274743
0.00204785
-0.00320059
0.00232715
-0.00364673
0.00258843
-0.00407584
0.0028259
-0.00448172
0.00303697
-0.00486489
0.00322315
-0.00522473
0.00338565
-0.00557751
0.00353165
-0.00590302
-0.00627258
0.0036578
-8.38736e-07
3.04954e-05
-4.90438e-07
6.59507e-05
3.94383e-06
7.87042e-05
1.56038e-05
6.7055e-05
3.7903e-05
2.84801e-05
7.45726e-05
-4.04009e-05
0.000129642
-0.000143808
0.00020732
-0.000286519
0.000311725
-0.000473364
0.000446417
-0.000708441
0.000613724
-0.0009941
0.000813931
-0.00132979
0.00104452
-0.00171108
0.00129977
-0.00212924
0.00157098
-0.00257174
0.0018475
-0.00302396
0.00211839
-0.00347148
0.00237416
-0.0039025
0.00260821
-0.00430988
0.0028175
-0.00469102
0.00300203
-0.00504942
0.00316494
-0.00538764
0.00330877
-0.00572133
0.00343993
-0.00603418
-0.0063898
0.00355715
-3.49226e-07
3.08446e-05
1.43521e-06
6.41663e-05
8.3521e-06
7.17873e-05
2.36836e-05
5.17234e-05
5.10299e-05
1.13387e-06
9.43099e-05
-8.36809e-05
0.00015769
-0.000207188
0.000245383
-0.000374212
0.000361261
-0.000589241
0.000508256
-0.000855436
0.000687577
-0.00117342
0.000897885
-0.0015401
0.0011347
-0.0019479
0.00139039
-0.00238492
0.00165492
-0.00283628
0.0019174
-0.00328644
0.00216789
-0.00372196
0.00239897
-0.00413358
0.00260662
-0.00451753
0.00279031
-0.00487471
0.00295198
-0.00521108
0.00309574
-0.00553141
0.00322456
-0.00585016
0.00334462
-0.00615424
-0.0064999
0.00345472
1.67972e-07
3.06766e-05
3.4853e-06
6.0849e-05
1.30567e-05
6.22159e-05
3.23116e-05
3.24685e-05
6.50204e-05
-3.15749e-05
0.000115255
-0.000133915
0.000187249
-0.000279182
0.000285097
-0.000472061
0.000412245
-0.000716389
0.000570761
-0.00101395
0.000760485
-0.00136315
0.000978286
-0.0017579
0.00121777
-0.00218738
0.00146974
-0.00263689
0.00172352
-0.00309006
0.00196876
-0.00353168
0.00219717
-0.00395038
0.00240372
-0.00434013
0.00258684
-0.00470065
0.002748
-0.00503587
0.00289041
-0.00535349
0.00301856
-0.00565956
0.0031355
-0.00596709
0.00324661
-0.00626535
-0.00660373
0.00335044
7.02678e-07
2.99739e-05
5.63404e-06
5.59176e-05
1.80091e-05
4.98408e-05
4.14035e-05
9.07418e-06
7.97389e-05
-6.99104e-05
0.000137194
-0.000191371
0.000217986
-0.000359973
0.000325952
-0.000580027
0.00046391
-0.000854348
0.000632828
-0.00118287
0.000830968
-0.00156129
0.00105335
-0.00198028
0.00129185
-0.00242589
0.00153628
-0.00288132
0.00177601
-0.00332979
0.00200192
-0.00375759
0.00220781
-0.00415627
0.00239101
-0.00452334
0.00255206
-0.00486169
0.00269384
-0.00517766
0.00282028
-0.00547992
0.00293578
-0.00577506
0.00304312
-0.00607443
0.00314689
-0.00636912
-0.00670217
0.00324532
1.25236e-06
2.87216e-05
7.86449e-06
4.93055e-05
2.31721e-05
3.45332e-05
5.08909e-05
-1.86446e-05
9.50691e-05
-0.000114089
0.000159936
-0.000256238
0.000249588
-0.000449625
0.000367447
-0.000697886
0.000515492
-0.00100239
0.000693366
-0.00136074
0.000897617
-0.00176554
0.00112148
-0.00220414
0.00135551
-0.00265992
0.00158909
-0.0031149
0.00181236
-0.00355306
0.00201794
-0.00396316
0.00220184
-0.00434017
0.00236356
-0.00468505
0.00250523
-0.00500337
0.00263065
-0.00530307
0.00274392
-0.00559319
0.0028491
-0.00588025
0.00294856
-0.00617388
0.00304607
-0.00646664
-0.00679569
0.0031396
1.81454e-06
2.6907e-05
1.01672e-05
4.09529e-05
2.85211e-05
1.61793e-05
6.07229e-05
-5.08464e-05
0.000110914
-0.00016428
0.000183306
-0.00032863
0.000281753
-0.000548072
0.000409083
-0.000825216
0.000566224
-0.00115953
0.000751308
-0.00154583
0.000959132
-0.00197336
0.00118137
-0.00242638
0.00140773
-0.00288629
0.00162785
-0.00333501
0.00183318
-0.00375839
0.00201834
-0.00414833
0.00218152
-0.00450336
0.00232397
-0.0048275
0.00244897
-0.00512837
0.00256069
-0.0054148
0.00266311
-0.00569561
0.00275977
-0.0059769
0.00285256
-0.00626667
0.00294454
-0.00655862
-0.00688465
0.0030335
2.38975e-06
2.45173e-05
1.25395e-05
3.08031e-05
3.4043e-05
-5.32418e-06
7.0863e-05
-8.76664e-05
0.000127192
-0.000220609
0.000207137
-0.000408575
0.000314173
-0.000655109
0.000450346
-0.000961389
0.000615329
-0.00132452
0.000805626
-0.00173612
0.00101436
-0.00218209
0.00123199
-0.00264401
0.00144797
-0.00310226
0.00165275
-0.0035398
0.00183951
-0.00394514
0.00200494
-0.00431376
0.00214912
-0.00464754
0.00227466
-0.00495304
0.00238547
-0.00523918
0.00248577
-0.00551509
0.00257917
-0.00578901
0.00266863
-0.00606636
0.0027556
-0.00635364
0.00284253
-0.00664554
-0.00696924
0.00292711
2.98056e-06
2.15367e-05
1.49843e-05
1.87994e-05
3.97332e-05
-3.00731e-05
8.12842e-05
-0.000129217
0.000143826
-0.00028315
0.000231261
-0.00049601
0.000346531
-0.000770378
0.000490704
-0.00110556
0.000662033
-0.00149585
0.000855357
-0.00192945
0.00106233
-0.00238907
0.00127267
-0.00285435
0.00147612
-0.00330571
0.00166445
-0.00372813
0.00183274
-0.00411343
0.00197964
-0.00446066
0.00210679
-0.00477469
0.00221768
-0.00506393
0.00231651
-0.00533801
0.00240725
-0.00560583
0.00249304
-0.0058748
0.00257627
-0.00614959
0.00265801
-0.00643538
0.00274017
-0.00672771
-0.00704956
0.00282049
3.59086e-06
1.79459e-05
1.75077e-05
4.88258e-06
4.55916e-05
-5.81571e-05
9.1962e-05
-0.000175588
0.000160736
-0.000351924
0.000255495
-0.000590769
0.000378479
-0.000893362
0.000529599
-0.00125668
0.000705572
-0.00167182
0.000899642
-0.00212352
0.00110232
-0.00259174
0.00130307
-0.0030551
0.00149248
-0.00349512
0.00166393
-0.00389958
0.00181443
-0.00426393
0.00194434
-0.00459057
0.00205646
-0.00488681
0.0021548
-0.00516227
0.00224351
-0.00542672
0.00232616
-0.00568848
0.00240539
-0.00595403
0.00248307
-0.00622726
0.00255995
-0.00651227
0.00263754
-0.0068053
-0.00712566
0.00271365
4.22501e-06
1.37209e-05
2.01166e-05
-1.1009e-05
5.16173e-05
-8.96578e-05
0.000102867
-0.000226838
0.000177829
-0.000426886
0.000279632
-0.000692572
0.000409642
-0.00102337
0.000566459
-0.0014135
0.000745223
-0.00185058
0.000937761
-0.00231606
0.00113384
-0.00278782
0.0013232
-0.00324447
0.00149766
-0.00366958
0.00165238
-0.0040543
0.00178616
-0.00439771
0.00190078
-0.00470519
0.0019998
-0.00498583
0.00208742
-0.0052499
0.00216753
-0.00550684
0.00224324
-0.00576419
0.00231668
-0.00602747
0.00238928
-0.00629986
0.00246156
-0.00658455
0.00253468
-0.00687842
-0.00719757
0.00260658
4.88704e-06
8.83383e-06
2.28164e-05
-2.89384e-05
5.78049e-05
-0.000124646
0.000113958
-0.000282991
0.00019499
-0.000507918
0.000303432
-0.000801013
0.000439615
-0.00115956
0.000600713
-0.0015746
0.000780336
-0.0020302
0.000969168
-0.00250489
0.00115668
-0.00297533
0.00133336
-0.00342115
0.00149251
-0.00382872
0.00163109
-0.00419288
0.0017495
-0.00451611
0.00185053
-0.00480622
0.00193822
-0.00507352
0.00201668
-0.00532835
0.00208941
-0.00557957
0.00215903
-0.00583381
0.00222723
-0.00609567
0.00229507
-0.0063677
0.0023629
-0.00665238
0.00243161
-0.00694713
-0.00726526
0.0024993
5.58001e-06
3.25382e-06
2.56089e-05
-4.89673e-05
6.41402e-05
-0.000163178
0.000125179
-0.00034403
0.000212079
-0.000594819
0.000326627
-0.000915561
0.000467974
-0.0013009
0.000631815
-0.00173844
0.000810364
-0.00220875
0.00099351
-0.00268804
0.00117089
-0.00315272
0.00133408
-0.00358434
0.00147804
-0.00397268
0.00160141
-0.00431625
0.00170588
-0.00462058
0.00179497
-0.00489532
0.00187287
-0.00515142
0.00194345
-0.00539893
0.00200975
-0.00564587
0.00207391
-0.00589798
0.00213725
-0.006159
0.00220054
-0.00643099
0.00226401
-0.00671584
0.00232834
-0.00701146
-0.00732873
0.00239181
6.30549e-06
-3.05167e-06
2.84908e-05
-7.11526e-05
7.05983e-05
-0.000205285
0.000136453
-0.000409885
0.00022893
-0.000687295
0.000348924
-0.00103555
0.000494294
-0.00144627
0.00065927
-0.00190341
0.000834889
-0.00238437
0.00101064
-0.00286378
0.00117672
-0.0033188
0.00132608
-0.0037337
0.00145533
-0.00410193
0.0015646
-0.00442553
0.00165659
-0.00471257
0.00173525
-0.00497398
0.00180469
-0.00522085
0.0018684
-0.00546264
0.00192898
-0.00570646
0.00198815
-0.00595715
0.00204689
-0.00621774
0.00210577
-0.00648988
0.00216493
-0.006775
0.00222488
-0.00707141
-0.00738795
0.00228409
7.06331e-06
-1.0115e-05
3.14529e-05
-9.55423e-05
7.7142e-05
-0.000250974
0.000147686
-0.000480429
0.000245352
-0.000784962
0.000370014
-0.00116022
0.000518166
-0.00159443
0.000682658
-0.00206791
0.000853637
-0.00255535
0.00102058
-0.00303072
0.00117462
-0.00347284
0.00131017
-0.00386925
0.00142546
-0.00421721
0.00152186
-0.00452193
0.00160278
-0.00479348
0.00167233
-0.00504353
0.00173438
-0.00528291
0.00179204
-0.00552029
0.00184744
-0.00576186
0.00190193
-0.00601164
0.00195625
-0.00627206
0.00201081
-0.00654444
0.00206567
-0.00682986
0.00212124
-0.00712697
-0.00744288
0.00217617
7.85145e-06
-1.79664e-05
3.44801e-05
-0.000122171
8.37223e-05
-0.000300216
0.000158764
-0.00055547
0.000261141
-0.000887339
0.000389587
-0.00128866
0.000539215
-0.00174405
0.000701654
-0.00223034
0.000866485
-0.00272018
0.00102355
-0.00318779
0.00116515
-0.00361444
0.00128725
-0.00399136
0.0013895
-0.00431946
0.00147426
-0.0046067
0.00154539
-0.00486461
0.00160696
-0.0051051
0.00166253
-0.00533848
0.00171474
-0.00557251
0.00176536
-0.00581248
0.0018154
-0.00606168
0.00186541
-0.00632207
0.0019157
-0.00659472
0.00196627
-0.00688043
0.00201745
-0.00717815
-0.00749349
0.00206805
8.66611e-06
-2.66325e-05
3.75514e-05
-0.000151056
9.02797e-05
-0.000352945
0.000169562
-0.000634753
0.00027608
-0.000993856
0.000407344
-0.00141993
0.000557123
-0.00189383
0.000716039
-0.00238926
0.000873451
-0.0028776
0.00101989
-0.00333423
0.00114898
-0.00374353
0.0012582
-0.00410057
0.00134842
-0.00440967
0.00142274
-0.00468103
0.00148522
-0.00492709
0.00153977
-0.00515965
0.00158956
-0.00538826
0.0016368
-0.00561975
0.0016829
-0.00585858
0.00172864
-0.00610742
0.00177443
-0.00636786
0.00182046
-0.00664075
0.00186674
-0.00692672
0.00191351
-0.00722492
-0.00753973
0.00195976
9.5019e-06
-3.61344e-05
4.06408e-05
-0.000182195
9.67457e-05
-0.00040905
0.000179944
-0.000717951
0.000289953
-0.00110386
0.000423012
-0.00155299
0.000571636
-0.00204246
0.000725703
-0.00254333
0.000874683
-0.00302657
0.00101005
-0.00346959
0.00112683
-0.00386032
0.00122389
-0.00419763
0.00130311
-0.00448889
0.00136811