/*--------------------------------*- C++ -*----------------------------------*\
  =========                 |
  \\      /  F ield         | OpenFOAM: The Open Source CFD Toolbox
   \\    /   O peration     | Website:  https://openfoam.org
    \\  /    A nd           | Version:  7
     \\/     M anipulation  |
\*---------------------------------------------------------------------------*/
FoamFile
{
    version     2.0;
    format      ascii;
    class       volVectorField;
    location    "165";
    object      U;
}
// * * * * * * * * * * * * * * * * * * * * * * * * * * * * * * * * * * * * * //

dimensions      [0 1 -1 0 0 0 0];

internalField   nonuniform List<vector> 
31800
(
(-0.000683479 -0.0270115 -1.32948e-20)
(-0.00537185 -0.0580935 9.20022e-21)
(-0.0151416 -0.0723291 -3.0074e-21)
(-0.0277561 -0.073953 1.32916e-20)
(-0.042387 -0.0667703 1.48502e-20)
(-0.058435 -0.0539141 -4.87201e-21)
(-0.0754229 -0.0376863 -3.55691e-21)
(-0.0930041 -0.0195133 2.49389e-20)
(-0.110904 -2.35976e-05 -2.86292e-21)
(-0.128883 0.0207686 4.07702e-21)
(-0.14672 0.0432265 1.39856e-20)
(-0.164192 0.0678639 1.36726e-20)
(-0.18107 0.0951753 -8.69689e-21)
(-0.197099 0.125535 -1.0726e-20)
(-0.211986 0.159144 -3.25478e-22)
(-0.225378 0.196001 -1.36405e-20)
(-0.236852 0.23586 1.04935e-20)
(-0.245904 0.278183 1.76869e-20)
(-0.251951 0.32207 -6.50147e-21)
(-0.254327 0.366204 2.95005e-20)
(-0.252298 0.408813 1.87344e-21)
(-0.245106 0.44768 -2.34587e-21)
(-0.232037 0.480246 5.14915e-21)
(-0.212267 0.503807 1.03226e-20)
(-0.185161 0.515865 6.42754e-21)
(-7.32808e-05 -0.0249984 1.36712e-20)
(-0.00408326 -0.0532389 7.18362e-21)
(-0.0135209 -0.0654809 -7.91753e-21)
(-0.0260079 -0.065721 -3.03427e-20)
(-0.0406179 -0.0575969 2.20327e-20)
(-0.0566857 -0.0441137 -1.07521e-20)
(-0.0736938 -0.0274861 5.83807e-22)
(-0.0912738 -0.00908945 -1.90912e-20)
(-0.109139 0.0104724 3.79958e-21)
(-0.12704 0.0311944 2.53104e-21)
(-0.144742 0.053441 -5.76173e-20)
(-0.162003 0.0777224 -1.24453e-21)
(-0.178567 0.104524 6.42167e-20)
(-0.194146 0.134202 -3.17908e-20)
(-0.208403 0.166932 -5.99412e-21)
(-0.220938 0.202676 1.34601e-20)
(-0.231268 0.241148 -2.77326e-20)
(-0.23882 0.281765 -1.79031e-21)
(-0.242927 0.323583 2.68337e-20)
(-0.242835 0.36525 -9.81787e-20)
(-0.237714 0.404971 -2.98429e-20)
(-0.226714 0.440531 4.50553e-20)
(-0.209053 0.469417 2.19112e-20)
(-0.183847 0.489013 3.97428e-21)
(-0.150334 0.497041 -9.05031e-21)
(0.000449194 -0.0229726 -2.74154e-20)
(-0.0029555 -0.0483955 -9.89045e-22)
(-0.0120318 -0.0586958 -3.71668e-20)
(-0.0243037 -0.0576144 5.592e-20)
(-0.0387624 -0.0486083 -6.35709e-20)
(-0.0546847 -0.0345479 -5.38019e-21)
(-0.0715167 -0.01756 -5.62441e-21)
(-0.0888684 0.0010277 1.00008e-20)
(-0.10644 0.0206294 3.42581e-20)
(-0.123971 0.0412416 -5.99134e-21)
(-0.14121 0.0632233 -9.31826e-21)
(-0.157893 0.0870766 3.65655e-20)
(-0.173732 0.113276 -7.58144e-21)
(-0.188403 0.142159 3.68444e-20)
(-0.201525 0.173876 -7.16817e-20)
(-0.212647 0.208355 -2.86817e-20)
(-0.221232 0.245267 5.19287e-21)
(-0.226642 0.283987 -9.40142e-20)
(-0.228143 0.323533 2.51221e-20)
(-0.224914 0.362521 5.87679e-20)
(-0.216063 0.399144 -3.50124e-20)
(-0.200687 0.431202 -8.69833e-20)
(-0.177992 0.456249 -4.3884e-20)
(-0.147117 0.471797 -8.19063e-20)
(-0.106915 0.475694 -4.58506e-20)
(0.000884755 -0.0209673 1.29559e-20)
(-0.00198964 -0.0436334 -2.1188e-20)
(-0.0106832 -0.0520632 6.76008e-20)
(-0.0226633 -0.0497327 -5.40881e-20)
(-0.0368531 -0.0399099 -1.33969e-20)
(-0.0524787 -0.0253264 -3.09557e-21)
(-0.0689527 -0.00802069 4.36077e-20)
(-0.0858639 0.0107229 3.00393e-20)
(-0.102899 0.0303303 -5.47628e-20)
(-0.119784 0.050792 2.24634e-20)
(-0.136251 0.0724551 2.62679e-21)
(-0.152011 0.0958089 -1.01904e-19)
(-0.166744 0.121314 -3.39615e-20)
(-0.180087 0.149293 3.00745e-21)
(-0.191615 0.179869 2.27757e-20)
(-0.200829 0.212937 1.00228e-19)
(-0.207139 0.248134 1.02126e-20)
(-0.209858 0.284793 9.40699e-20)
(-0.2082 0.321899 8.92248e-20)
(-0.201301 0.35805 -1.08931e-20)
(-0.188242 0.391439 4.23946e-20)
(-0.168108 0.419896 -1.41949e-20)
(-0.140137 0.441043 5.2463e-20)
(-0.103631 0.452577 1.79265e-19)
(-0.0567422 0.452442 2.94236e-20)
(0.00123651 -0.0190117 2.11183e-20)
(-0.00118309 -0.0390152 -7.672e-20)
(-0.00948193 -0.0456633 9.87914e-20)
(-0.0211065 -0.042166 3.64103e-20)
(-0.0349253 -0.0315983 2.91154e-20)
(-0.05012 -0.0165511 3.09011e-20)
(-0.066072 0.00102475 -1.61149e-19)
(-0.0823493 0.0198849 5.86941e-20)
(-0.0986235 0.0394612 6.17461e-20)
(-0.114608 0.0597311 -9.12461e-20)
(-0.130017 0.0810226 9.45015e-20)
(-0.144537 0.103808 5.23211e-20)
(-0.157818 0.128532 6.15515e-20)
(-0.169456 0.1555 -4.12792e-20)
(-0.178984 0.184815 -8.76752e-21)
(-0.18586 0.216343 1.99482e-19)
(-0.189449 0.249687 -8.71544e-20)
(-0.189026 0.284148 6.47179e-20)
(-0.183772 0.318689 -1.61263e-19)
(-0.172805 0.351898 -6.23852e-20)
(-0.155213 0.381987 6.16691e-20)
(-0.13011 0.406834 1.0689e-19)
(-0.0967806 0.424128 1.74765e-20)
(-0.0548304 0.431755 -1.44539e-19)
(-0.00147111 0.427763 -1.03152e-19)
(0.0015094 -0.0171307 -8.13814e-20)
(-0.000530406 -0.0345935 -2.54665e-20)
(-0.00843261 -0.0395645 -5.88748e-20)
(-0.0196532 -0.0349925 -5.67351e-20)
(-0.0330169 -0.0237594 4.04493e-20)
(-0.0476661 -0.0083148 -7.07922e-20)
(-0.0629533 0.00947697 -4.44408e-20)
(-0.0784249 0.0284088 -2.28804e-19)
(-0.0937376 0.0479133 9.47375e-21)
(-0.108592 0.0679483 -1.27566e-21)
(-0.122684 0.0888165 -1.72083e-19)
(-0.135681 0.110968 -5.67018e-20)
(-0.1472 0.134829 -7.38596e-20)
(-0.156803 0.160691 1.38455e-19)
(-0.163984 0.188635 3.96099e-20)
(-0.168161 0.218507 -1.10341e-19)
(-0.168668 0.249882 -1.15271e-19)
(-0.164751 0.282039 2.84854e-20)
(-0.155578 0.313928 1.27705e-19)
(-0.140274 0.344143 -2.49832e-20)
(-0.117961 0.370931 -1.64717e-20)
(-0.0878205 0.392238 -8.11466e-20)
(-0.0491927 0.40582 -1.02385e-19)
(-0.00216214 0.409772 8.67786e-20)
(0.057473 0.402023 6.15188e-20)
(0.00170962 -0.0153438 4.30966e-20)
(-2.42001e-05 -0.0304105 5.03055e-20)
(-0.00753889 -0.0338222 -3.90123e-20)
(-0.0183234 -0.0282772 -8.01473e-20)
(-0.0311676 -0.0164664 1.24793e-20)
(-0.0451788 -0.000699339 9.41364e-20)
(-0.0596814 0.0172456 1.35514e-19)
(-0.0742005 0.0361967 1.82258e-19)
(-0.0883769 0.0555833 3.04609e-20)
(-0.101898 0.0753381 4.26909e-20)
(-0.114448 0.0957324 5.15575e-20)
(-0.125671 0.117188 1.89662e-19)
(-0.135162 0.140114 -1.07721e-20)
(-0.142449 0.164782 -2.36897e-19)
(-0.146995 0.191261 1.67385e-19)
(-0.148187 0.219377 6.41821e-20)
(-0.145333 0.24869 2.1019e-19)
(-0.137668 0.278466 -8.84095e-20)
(-0.124365 0.307653 -9.57809e-20)
(-0.104573 0.334868 2.72985e-19)
(-0.0774715 0.358406 -9.07398e-20)
(-0.0423506 0.376307 -1.43035e-19)
(0.0014499 0.386378 -3.83271e-20)
(0.0530408 0.387023 -1.28176e-19)
(0.118721 0.375716 2.31591e-20)
(0.00184402 -0.0136651 1.06471e-20)
(0.000343857 -0.0264968 -1.90743e-20)
(-0.00680385 -0.0284781 3.92458e-21)
(-0.0171373 -0.0220706 -1.41865e-19)
(-0.0294185 -0.00977889 -1.10881e-19)
(-0.0427224 0.00622597 -2.11222e-20)
(-0.0563462 0.0242512 -5.23849e-20)
(-0.0697927 0.0431596 -9.84851e-20)
(-0.0826871 0.062375 -2.37091e-20)
(-0.0947049 0.0818006 -9.69627e-21)
(-0.105518 0.101671 -9.8951e-20)
(-0.114757 0.122376 4.10861e-20)
(-0.121994 0.144299 3.25194e-20)
(-0.126736 0.167699 1.70968e-19)
(-0.128419 0.192632 -7.67013e-21)
(-0.126409 0.218913 -1.01939e-19)
(-0.119999 0.246094 -1.23873e-20)
(-0.108427 0.273439 3.96492e-20)
(-0.0908841 0.299906 1.7209e-19)
(-0.0665655 0.324152 -1.32794e-19)
(-0.0347172 0.344531 3.39722e-19)
(0.00520698 0.359209 1.44807e-19)
(0.054 0.366013 -1.11195e-19)
(0.109554 0.363745 2.26173e-19)
(0.180972 0.349238 1.40448e-19)
(0.00191948 -0.0121027 1.15764e-20)
(0.00058205 -0.0228708 6.35322e-20)
(-0.00623073 -0.0235589 1.76989e-19)
(-0.0161156 -0.0164077 2.22221e-19)
(-0.0278113 -0.0037413 1.30964e-19)
(-0.0403626 0.0124059 -9.08217e-20)
(-0.0530396 0.0304268 2.21978e-19)
(-0.0653223 0.0492193 2.41582e-20)
(-0.0768195 0.068201 -1.31574e-19)
(-0.087196 0.0872431 1.52324e-20)
(-0.0961149 0.106538 2.36265e-19)
(-0.103198 0.12644 -2.49077e-19)
(-0.108003 0.147304 -1.39383e-19)
(-0.110022 0.169374 -2.93225e-20)
(-0.108674 0.192697 -2.25763e-19)
(-0.103311 0.217082 -1.43218e-19)
(-0.0932289 0.242082 2.37078e-20)
(-0.0776773 0.26697 -2.91817e-19)
(-0.0558824 0.290732 2.43672e-20)
(-0.0271007 0.31207 -1.40026e-19)
(0.00935456 0.329408 -1.75943e-19)
(0.0537897 0.34107 1.63335e-19)
(0.107327 0.344887 1.93893e-19)
(0.166197 0.340103 -1.53217e-19)
(0.242926 0.32281 2.23757e-19)
(0.00194228 -0.0106594 -1.46796e-19)
(0.000697667 -0.0195394 1.07205e-19)
(-0.00582353 -0.0190768 -9.31771e-21)
(-0.0152792 -0.0113078 4.16665e-20)
(-0.0263876 0.0016179 3.92797e-20)
(-0.0381646 0.0178005 1.80661e-19)
(-0.0498532 0.0357198 -1.30855e-19)
(-0.0609101 0.0543105 -2.4e-19)
(-0.0709273 0.0729851 1.19121e-19)
(-0.07956 0.0915815 1.10377e-19)
(-0.0864655 0.110248 -3.68763e-19)
(-0.0912613 0.129297 2.5677e-19)
(-0.0935011 0.149054 3.82001e-19)
(-0.0926679 0.169744 2.37298e-20)
(-0.088178 0.191408 -6.21073e-20)
(-0.0793807 0.213854 1.84455e-19)
(-0.0655819 0.23665 -8.36005e-20)
(-0.0460585 0.259081 3.71645e-19)
(-0.0200859 0.280173 -3.26073e-19)
(0.0129982 0.298686 6.05575e-20)
(0.0538344 0.313123 -3.05428e-20)
(0.102381 0.321989 -1.04549e-19)
(0.160339 0.323099 -1.03792e-19)
(0.221842 0.316213 9.18303e-20)
(0.303298 0.296501 2.09059e-20)
(0.00191761 -0.00933222 9.41769e-20)
(0.000696166 -0.016498 -6.85063e-20)
(-0.00558747 -0.0150298 5.44447e-20)
(-0.014649 -0.0067743 -1.88765e-19)
(-0.0251876 0.00628665 -4.23385e-20)
(-0.036191 0.0223866 2.04497e-20)
(-0.0468755 0.0400937 -4.60346e-20)
(-0.0566735 0.0583828 -7.53246e-20)
(-0.0651604 0.0766641 2.23563e-20)
(-0.0719822 0.0947431 -1.26315e-19)
(-0.0767941 0.112723 2.34448e-19)
(-0.0792147 0.130869 -5.41608e-20)
(-0.0788005 0.149476 -1.35451e-19)
(-0.0750371 0.168748 -1.35e-19)
(-0.0673487 0.188719 1.74764e-19)
(-0.0550942 0.209208 8.90489e-20)
(-0.0376003 0.229793 3.7009e-20)
(-0.0141879 0.249788 -3.02532e-19)
(0.0158127 0.268265 3.12284e-19)
(0.0529574 0.284057 -9.94506e-20)
(0.0978756 0.29575 -4.86455e-20)
(0.150044 0.30204 -3.9599e-20)
(0.212037 0.300712 -4.58589e-20)
(0.275476 0.292162 1.45864e-19)
(0.361001 0.270282 -2.599e-19)
(0.00184907 -0.00811376 -3.52447e-20)
(0.000580529 -0.0137318 1.48184e-19)
(-0.00552916 -0.0114024 -2.1423e-19)
(-0.0142454 -0.00279562 8.61329e-20)
(-0.0242486 0.0102693 4.56318e-20)
(-0.0344993 0.0261581 -7.07143e-20)
(-0.0441873 0.0435297 2.0503e-19)
(-0.0527211 0.0614036 5.09491e-20)
(-0.0596587 0.0791916 2.05253e-20)
(-0.0646382 0.09667 1.9484e-19)
(-0.0673151 0.113896 -7.86486e-20)
(-0.0673144 0.131089 7.97237e-20)
(-0.0642029 0.148507 -8.60341e-20)
(-0.0574802 0.166332 -4.73792e-21)
(-0.0465849 0.184593 -8.98898e-20)
(-0.0309042 0.203122 -3.06305e-19)
(-0.00979795 0.221506 6.18626e-20)
(0.0173622 0.239106 2.3661e-19)
(0.0511801 0.255045 -8.47704e-20)
(0.0920818 0.268237 3.94972e-19)
(0.140738 0.277357 -2.20648e-19)
(0.195989 0.281294 -6.49102e-20)
(0.261634 0.277763 -1.11314e-19)
(0.326325 0.268019 3.94093e-21)
(0.415453 0.244088 -1.07956e-19)
(0.00173836 -0.00699231 -1.01492e-19)
(0.000350861 -0.0112172 -1.53651e-19)
(-0.00565664 -0.0081675 -8.0486e-20)
(-0.0140875 0.000654064 7.66063e-20)
(-0.0236035 0.0135864 2.31905e-20)
(-0.0331392 0.0291268 1.34681e-20)
(-0.0418587 0.0460282 5.14324e-20)
(-0.0491468 0.0633598 -2.48108e-19)
(-0.0545451 0.080541 7.92976e-20)
(-0.057684 0.097323 -1.67939e-19)
(-0.0582215 0.11372 -5.75813e-20)
(-0.0557935 0.129904 -7.9954e-20)
(-0.0499844 0.146095 -1.6389e-19)
(-0.0403161 0.162452 3.30871e-19)
(-0.0262542 0.178998 1.83096e-19)
(-0.00722276 0.195572 4.98956e-20)
(0.0173708 0.211791 1.48659e-19)
(0.0480941 0.227057 -2.14068e-19)
(0.0854834 0.240553 -5.52852e-20)
(0.129812 0.251279 -2.4896e-19)
(0.181864 0.258014 9.80049e-20)
(0.239678 0.259819 2.19866e-19)
(0.308726 0.254304 1.08286e-19)
(0.374044 0.24383 -2.05887e-19)
(0.466933 0.217889 2.78948e-19)
(0.00158513 -0.00595304 -3.416e-20)
(4.30595e-06 -0.00892348 7.6519e-21)
(-0.0059789 -0.00528787 1.02515e-19)
(-0.0141922 0.00361304 1.80738e-19)
(-0.0232787 0.0162733 -1.20504e-19)
(-0.032149 0.0313221 1.14335e-19)
(-0.0399432 0.0476098 -8.97039e-20)
(-0.046024 0.064261 3.38412e-19)
(-0.0499167 0.0807094 -2.34644e-19)
(-0.0512453 0.096687 5.0282e-20)
(-0.0496717 0.112168 2.11621e-19)
(-0.0448458 0.127281 -2.69739e-20)
(-0.0363751 0.142206 2.23459e-20)
(-0.0238118 0.157077 -2.66163e-19)
(-0.00665832 0.171911 -2.20421e-19)
(0.0156162 0.186556 -8.97378e-21)
(0.0435485 0.20066 -2.32972e-19)
(0.0776374 0.213671 8.37696e-20)
(0.118357 0.224842 -1.17508e-19)
(0.165815 0.233249 1.55544e-19)
(0.221001 0.237812 -2.05303e-19)
(0.280994 0.2377 1.24917e-19)
(0.353509 0.230442 -1.09634e-19)
(0.419001 0.219615 1.62871e-19)
(0.51687 0.191765 -1.23599e-20)
(0.00138695 -0.00497898 1.94393e-19)
(-0.00046469 -0.00681495 4.73378e-20)
(-0.00650509 -0.00271871 -1.11367e-19)
(-0.0145723 0.00613007 -1.33349e-19)
(-0.0232915 0.0183791 8.97716e-20)
(-0.0315524 0.0327906 -3.26533e-19)
(-0.0384735 0.0483158 4.61249e-19)
(-0.0433977 0.0641408 8.6063e-20)
(-0.0458353 0.0797206 1.45221e-19)
(-0.0454045 0.0947755 1.74511e-19)
(-0.0417718 0.109246 1.06754e-19)
(-0.0346036 0.123219 -7.77147e-20)
(-0.0235334 0.136836 -4.73124e-23)
(-0.00814896 0.150207 -3.68238e-20)
(0.0120047 0.16334 -1.07552e-19)
(0.037408 0.176095 2.3754e-19)
(0.0685396 0.188153 4.78664e-19)
(0.10583 0.199011 2.55515e-20)
(0.149709 0.207996 1.60292e-19)
(0.20012 0.214255 -8.29363e-20)
(0.258367 0.21689 1.08589e-19)
(0.320455 0.215063 -6.27197e-19)
(0.396985 0.206393 3.10664e-19)
(0.462578 0.195405 2.0072e-19)
(0.567873 0.165979 -1.42264e-19)
(0.00113956 -0.00405214 -1.1545e-19)
(-0.00106373 -0.00485323 -1.9835e-19)
(-0.00724333 -0.000410204 1.89174e-19)
(-0.0152348 0.00826188 1.2433e-19)
(-0.0236475 0.0199648 6.47469e-20)
(-0.031354 0.033595 2.33538e-19)
(-0.0374553 0.0482085 -2.41777e-19)
(-0.041277 0.0630585 -2.20443e-19)
(-0.0423165 0.0776291 -1.44214e-19)
(-0.040186 0.0916368 -3.28614e-19)
(-0.0345572 0.104996 6.04555e-20)
(-0.0251125 0.117755 -2.46111e-20)
(-0.0115125 0.13002 4.40292e-19)
(0.00661933 0.14188 1.78147e-19)
(0.0296944 0.153334 1.26511e-19)
(0.0581442 0.164256 -4.21904e-20)
(0.0923965 0.174359 -2.18384e-19)
(0.132826 0.183192 -1.73941e-19)
(0.179848 0.190167 -2.02055e-19)
(0.23328 0.194476 1.44798e-19)
(0.294835 0.195475 2.75277e-19)
(0.359421 0.192122 3.21394e-19)
(0.441055 0.18252 -3.12369e-19)
(0.507307 0.171326 1.37371e-19)
(0.6233 0.141036 2.04381e-19)
(0.000837196 -0.00315472 -2.9806e-19)
(-0.00180142 -0.00299969 1.66491e-19)
(-0.0081991 0.00168963 -2.83797e-19)
(-0.0161788 0.0100704 3.46892e-19)
(-0.0243376 0.0211004 -3.31719e-19)
(-0.0315361 0.0338121 -9.86884e-20)
(-0.0368621 0.0473698 -1.81735e-19)
(-0.0396277 0.0610995 1.01062e-19)
(-0.0393185 0.0745218 -1.70254e-19)
(-0.0355413 0.0873579 1.83813e-19)
(-0.027971 0.0995025 -2.37274e-19)
(-0.0163034 0.110974 -1.70807e-19)
(-0.000222351 0.12185 2.19508e-21)
(0.0206174 0.132196 -2.50344e-19)
(0.0465911 0.142009 7.06815e-21)
(0.0780926 0.151175 -2.41895e-19)
(0.115518 0.159445 -1.39399e-20)
(0.159213 0.166421 -2.56628e-19)
(0.209626 0.171605 8.88224e-20)
(0.266508 0.174211 3.88411e-19)
(0.332043 0.173922 -3.79684e-19)
(0.400155 0.169246 1.9287e-19)
(0.488358 0.159342 2.18914e-19)
(0.556598 0.147704 -1.15904e-19)
(0.686269 0.117681 4.76094e-20)
(0.000473287 -0.00227033 1.54479e-19)
(-0.00268605 -0.00121791 -4.39863e-20)
(-0.00937336 0.003632 9.62555e-20)
(-0.017393 0.0116198 -2.78831e-19)
(-0.0253349 0.0218622 4.41929e-19)
(-0.032054 0.0335303 2.89749e-20)
(-0.0366297 0.0458996 3.14612e-19)
(-0.038364 0.0583743 -1.62955e-19)
(-0.0367321 0.0705184 1.08236e-19)
(-0.031334 0.0820663 1.39966e-19)
(-0.0218437 0.0929023 1.26772e-19)
(-0.00796397 0.103023 3.88566e-19)
(0.0106071 0.112482 -9.96642e-20)
(0.0341957 0.12133 -9.24339e-20)
(0.0631573 0.129562 -7.07528e-20)
(0.0978711 0.137084 -2.00881e-21)
(0.138732 0.143686 -1.43415e-19)
(0.186102 0.149022 1.29476e-19)
(0.240507 0.152692 -1.69696e-19)
(0.301711 0.153908 6.56488e-20)
(0.372332 0.152734 -9.79871e-20)
(0.445582 0.147004 1.09037e-20)
(0.541761 0.137488 -5.09584e-19)
(0.613941 0.125151 5.04047e-20)
(0.758397 0.0967797 -6.14432e-21)
(4.11686e-05 -0.00138516 2.01685e-19)
(-0.0037239 0.000523953 -1.36586e-19)
(-0.0107605 0.00546438 -9.56078e-20)
(-0.0188534 0.012973 -5.87199e-20)
(-0.0265925 0.0223296 -1.90126e-19)
(-0.0328333 0.0328464 -3.16251e-19)
(-0.0366522 0.0439131 -1.02405e-19)
(-0.0373438 0.0550162 3.47395e-19)
(-0.0343724 0.0657703 -1.08287e-19)
(-0.0273279 0.0759312 -2.26997e-19)
(-0.0158764 0.0853827 -1.33325e-19)
(0.000283657 0.0941089 -3.96879e-19)
(0.0214556 0.102148 -4.16759e-19)
(0.0479668 0.109541 3.07947e-19)
(0.0801792 0.116291 6.24325e-20)
(0.11849 0.122326 5.05058e-20)
(0.163331 0.127477 4.94251e-19)
(0.215125 0.131455 7.44145e-20)
(0.274507 0.133955 4.63491e-19)
(0.341314 0.134167 -5.61656e-19)
(0.418409 0.132549 2.66911e-19)
(0.498673 0.12615 -2.50325e-19)
(0.60356 0.117636 4.09127e-19)
(0.681699 0.104524 -6.39405e-19)
(0.838818 0.0791055 1.41025e-19)
(-0.000464999 -0.000489009 -5.16411e-20)
(-0.00491749 0.00225097 -1.07267e-19)
(-0.0123464 0.00722774 -9.81248e-20)
(-0.0205215 0.0141887 3.30049e-20)
(-0.0280409 0.0225815 -5.20505e-20)
(-0.0337676 0.0318617 2.00633e-19)
(-0.0367793 0.0415359 -6.98065e-20)
(-0.0363642 0.0511769 -1.47079e-19)
(-0.0319739 0.0604563 -6.11545e-20)
(-0.0231812 0.0691595 2.92556e-21)
(-0.00963313 0.07718 3.68193e-19)
(0.00899294 0.0844995 -3.12872e-19)
(0.0330234 0.0911505 4.47364e-19)
(0.0628142 0.0971762 -1.26543e-19)
(0.0987658 0.102591 -2.10133e-19)
(0.141328 0.107352 1.74478e-19)
(0.191005 0.111335 -1.86783e-19)
(0.248302 0.114303 -3.09672e-19)
(0.313945 0.11604 -1.17936e-19)
(0.387838 0.115704 1.10805e-19)
(0.472734 0.114077 1.76848e-19)
(0.561568 0.107518 3.56768e-19)
(0.674648 0.100394 2.48185e-20)
(0.759967 0.0867368 2.67723e-19)
(0.924087 0.0651345 -9.61848e-20)
(-0.00104926 0.000423828 -2.50493e-20)
(-0.00626384 0.00397964 2.34364e-19)
(-0.0141064 0.00895399 2.43146e-19)
(-0.0223425 0.0153181 -1.09248e-19)
(-0.0295874 0.0226922 7.69141e-20)
(-0.034718 0.0306774 -2.80081e-19)
(-0.0368161 0.0388991 5.51982e-20)
(-0.0351628 0.0470204 4.42719e-20)
(-0.0291917 0.0547756 -1.26563e-19)
(-0.018448 0.0619881 -3.40964e-20)
(-0.00254428 0.0685712 -4.5502e-19)
(0.0188843 0.0745153 1.42692e-19)
(0.0462136 0.0798588 -2.19837e-20)
(0.0798579 0.0846554 -6.24582e-21)
(0.120286 0.0889404 -1.82506e-20)
(0.168025 0.092702 -2.22289e-21)
(0.223656 0.0958618 -1.40257e-20)
(0.287744 0.098227 2.15616e-19)
(0.361011 0.0996459 -1.90329e-19)
(0.443308 0.099255 1.73654e-19)
(0.536808 0.0980001 -2.61603e-19)
(0.634751 0.0918536 -1.29518e-19)
(0.75401 0.0862048 4.22906e-20)
(0.846082 0.0724776 -2.22287e-19)
(1.00908 0.0549171 -7.76126e-20)
(-0.0017129 0.00135394 -2.31665e-19)
(-0.00775277 0.00571656 -3.00671e-20)
(-0.0160043 0.0106639 -2.96057e-19)
(-0.0242447 0.016402 -2.37966e-19)
(-0.0311161 0.0227276 3.14599e-19)
(-0.0355145 0.0293892 2.14606e-19)
(-0.0365264 0.0361328 -9.40338e-20)
(-0.0334223 0.0427148 -8.1937e-20)
(-0.0256095 0.0489383 -6.0007e-20)
(-0.0125918 0.054672 5.16006e-19)
(0.00607198 0.0598595 1.96268e-19)
(0.0308119 0.0645111 2.67289e-19)
(0.0620789 0.0686822 -1.59456e-20)
(0.10037 0.072446 4.81388e-20)
(0.146236 0.0758644 1.31176e-19)
(0.200276 0.0789583 -3.0709e-19)
(0.263106 0.0816865 4.77481e-19)
(0.335254 0.0838854 4.97915e-20)
(0.417247 0.0854325 -1.53303e-19)
(0.50866 0.0854559 -2.32983e-19)
(0.610599 0.0848541 -1.27263e-19)
(0.71665 0.0796239 2.97663e-19)
(0.838744 0.0752694 -8.9548e-21)
(0.935123 0.0619939 1.69476e-19)
(1.08842 0.0480912 2.13195e-19)
(-0.00245356 0.00229655 1.75975e-19)
(-0.00936569 0.00745763 1.85712e-20)
(-0.0179914 0.0123657 -3.82192e-20)
(-0.0261401 0.0174683 4.30188e-20)
(-0.03249 0.0227414 -2.97354e-19)
(-0.0359597 0.0280824 3.92562e-19)
(-0.0356393 0.0333589 -1.74482e-21)
(-0.0307813 0.0384235 3.14323e-19)
(-0.0207562 0.0431528 1.44281e-20)
(-0.00501025 0.0474688 -1.05645e-19)
(0.0169713 0.0513551 1.60422e-19)
(0.0457043 0.0548521 -5.26272e-19)
(0.0817324 0.0580414 -3.15232e-19)
(0.125641 0.0610231 -1.52073e-19)
(0.178049 0.0638872 -6.49453e-20)
(0.239573 0.066682 5.74095e-21)
(0.310755 0.0693879 -3.09022e-19)
(0.391911 0.0718473 1.15713e-19)
(0.483109 0.0739154 4.45482e-19)
(0.58336 0.0747316 1.23009e-19)
(0.692345 0.0749315 3.05175e-19)
(0.803865 0.070925 -3.10529e-19)
(0.924634 0.0675048 -7.68741e-20)
(1.02125 0.0550571 -1.3011e-19)
(1.15782 0.0440095 -7.35892e-19)
(-0.00326465 0.00324162 -1.63518e-19)
(-0.0110748 0.00918803 8.33599e-20)
(-0.0200065 0.0140541 1.49112e-19)
(-0.0279256 0.01853 5.15256e-19)
(-0.0335542 0.0227721 1.93652e-19)
(-0.0358354 0.0268267 -4.27236e-19)
(-0.0338586 0.0306838 -1.06756e-19)
(-0.0268502 0.0342946 -5.72011e-20)
(-0.0141299 0.0376129 -1.80725e-19)
(0.00492825 0.040622 -5.98223e-20)
(0.0309289 0.0433531 -1.17613e-19)
(0.0644854 0.045885 4.19225e-19)
(0.106233 0.0483327 4.87886e-19)
(0.156824 0.0508255 2.39947e-19)
(0.216885 0.0534773 -1.20593e-19)
(0.286938 0.0563508 -8.26833e-20)
(0.367279 0.0594228 1.78756e-19)
(0.457777 0.0625125 -3.94443e-20)
(0.557757 0.0653923 -2.21547e-21)
(0.665393 0.0672294 9.8235e-20)
(0.778826 0.0682335 -1.42233e-19)
(0.891929 0.0654985 -2.54407e-19)
(1.00706 0.062562 -1.77741e-19)
(1.09924 0.0510967 2.25453e-19)
(1.21481 0.0419198 7.57225e-19)
(-0.00413496 0.00417434 1.29987e-19)
(-0.012843 0.0108829 4.42865e-19)
(-0.0219773 0.0157105 1.77409e-19)
(-0.0294856 0.0195844 -1.57961e-19)
(-0.0341409 0.0228401 2.18419e-19)
(-0.0349099 0.0256719 2.39494e-19)
(-0.0308761 0.0281921 2.65744e-19)
(-0.0212298 0.0304518 -1.60915e-20)
(-0.00522744 0.0324858 2.03206e-19)
(0.0178409 0.0343441 -6.17392e-19)
(0.0486766 0.0361116 3.43462e-19)
(0.087985 0.0379114 -1.77763e-19)
(0.136467 0.0398941 -4.39605e-19)
(0.194778 0.0422151 -3.10947e-19)
(0.263443 0.0450011 4.98993e-19)
(0.342729 0.0483078 -1.68154e-19)
(0.432461 0.0520756 -8.15702e-20)
(0.531812 0.0560666 6.28565e-20)
(0.639132 0.0599138 -3.14537e-19)
(0.751609 0.0628191 2.59593e-19)
(0.865993 0.0644882 -4.30342e-20)
(0.976276 0.0628385 3.14581e-19)
(1.08196 0.0599074 3.77782e-19)
(1.16556 0.0494063 -1.33991e-19)
(1.25879 0.0411247 -2.80314e-19)
(-0.00504864 0.00507605 -6.73837e-20)
(-0.0146242 0.0125085 -2.51691e-19)
(-0.0238215 0.0173037 6.22713e-21)
(-0.0306956 0.0206127 -1.26951e-19)
(-0.034075 0.0229466 -3.71658e-19)
(-0.0329482 0.024645 -1.90766e-19)
(-0.026386 0.0259413 1.0452e-19)
(-0.0135336 0.0269873 -3.21682e-19)
(0.00642426 0.0279012 2.57553e-20)
(0.0342856 0.028803 1.5394e-19)
(0.07084 0.0298351 -4.3465e-19)
(0.116857 0.0311664 -1.40879e-19)
(0.173041 0.0329807 3.51083e-19)
(0.239949 0.03545 2.31521e-19)
(0.31785 0.0386951 -2.95443e-19)
(0.406552 0.0427366 3.11877e-19)
(0.505183 0.0474411 1.28708e-19)
(0.612009 0.052479 -3.13128e-20)
(0.724297 0.0573038 -2.79499e-20)
(0.838291 0.0611496 -2.74538e-19)
(0.949758 0.0632305 3.0966e-20)
(1.05309 0.0623268 -5.47675e-20)
(1.14649 0.058945 -2.93956e-19)
(1.21871 0.0493173 -2.18258e-19)
(1.29061 0.041042 -2.09924e-19)
(-0.00598557 0.00592544 -4.21572e-20)
(-0.0163647 0.0140248 -5.54862e-19)
(-0.0254494 0.0187919 -3.43184e-19)
(-0.0314258 0.0215817 -4.3738e-19)
(-0.0331805 0.0230738 3.86152e-19)
(-0.0297208 0.0237493 3.15154e-20)
(-0.0200987 0.0239601 2.75612e-19)
(-0.00340838 0.023958 -2.50625e-19)
(0.0212391 0.0239457 4.09907e-19)
(0.054721 0.0241144 1.51561e-19)
(0.0978877 0.0246645 1.19757e-20)
(0.151516 0.025808 -2.26609e-20)
(0.21622 0.0277537 -7.86395e-20)
(0.292314 0.0306747 -6.88376e-20)
(0.37963 0.0346607 6.96239e-20)
(0.477304 0.0396645 9.81862e-20)
(0.583577 0.045441 -6.17953e-19)
(0.695699 0.0515383 3.85745e-20)
(0.80992 0.0572164 -1.01986e-19)
(0.921785 0.0617341 -9.40696e-20)
(1.02667 0.0639104 4.82911e-20)
(1.11977 0.0633491 -3.15221e-19)
(1.19932 0.0591348 1.47689e-19)
(1.25889 0.0502976 1.90298e-19)
(1.31206 0.0412586 -4.34206e-19)
(-0.0069221 0.00670008 9.83766e-20)
(-0.0180044 0.0153876 4.01214e-19)
(-0.0267664 0.0201254 3.51448e-20)
(-0.0315451 0.0224455 6.34409e-19)
(-0.0312863 0.0231866 -4.01817e-19)
(-0.0250124 0.0229654 3.91715e-19)
(-0.0117532 0.0222482 -3.49021e-19)
(0.00944937 0.021385 1.36889e-19)
(0.0395493 0.0206622 -1.73126e-19)
(0.0794788 0.0203412 2.2538e-19)
(0.130099 0.0206772 3.67886e-19)
(0.192108 0.0219183 1.8664e-19)
(0.265903 0.024285 7.39861e-20)
(0.351389 0.0279294 7.97679e-20)
(0.447765 0.0328806 -5.7692e-20)
(0.553316 0.0389882 -4.66023e-20)
(0.665286 0.0458627 5.05503e-19)
(0.779939 0.0529069 1.66307e-19)
(0.892755 0.0592063 4.58021e-19)
(0.999005 0.064038 1.17496e-20)
(1.09432 0.0659902 -2.93202e-19)
(1.17512 0.0653701 3.67665e-19)
(1.24044 0.060074 4.71916e-19)
(1.28745 0.0520063 6.19252e-20)
(1.32523 0.0414822 4.27493e-19)
(-0.00783199 0.00737796 -2.79016e-19)
(-0.0194794 0.0165516 1.55179e-19)
(-0.0276758 0.0212498 3.41674e-19)
(-0.0309248 0.0231495 -1.34655e-19)
(-0.0282306 0.0232364 -3.98552e-19)
(-0.0186284 0.0222549 -2.90101e-20)
(-0.0011251 0.0207808 2.12784e-20)
(0.0252823 0.0192586 3.77624e-20)
(0.0615927 0.018056 -2.40115e-19)
(0.10875 0.0175008 -9.99706e-20)
(0.167554 0.0178967 -3.4371e-19)
(0.238511 0.0195165 -7.61758e-21)
(0.32165 0.0225734 -9.16662e-20)
(0.41629 0.0271721 -2.79775e-20)
(0.520819 0.033247 2.36769e-19)
(0.632553 0.0405102 -3.42937e-19)
(0.747749 0.0484038 1.44642e-19)
(0.861872 0.0561785 -2.23209e-19)
(0.970035 0.0627936 -3.32121e-19)
(1.06775 0.0675502 6.17443e-20)
(1.15148 0.0690038 6.24491e-19)
(1.21909 0.0679666 -3.19197e-19)
(1.27083 0.061539 1.2086e-20)
(1.3062 0.0542734 2.78888e-19)
(1.33208 0.0414566 1.57492e-19)
(-0.00868761 0.00793899 1.31404e-19)
(-0.0207235 0.0174736 -1.87142e-19)
(-0.0280812 0.0221104 -3.97031e-19)
(-0.0294412 0.0236349 -2.11084e-19)
(-0.0238643 0.023166 2.3027e-19)
(-0.0103978 0.0215666 7.84057e-20)
(0.0119689 0.0195153 4.53277e-19)
(0.0442687 0.0175464 1.81929e-19)
(0.0875104 0.0161046 1.13615e-19)
(0.142589 0.015578 5.28794e-20)
(0.210144 0.0163087 3.56314e-19)
(0.290361 0.0185782 1.58419e-19)
(0.382734 0.0225685 -1.28163e-19)
(0.485823 0.0283048 1.80552e-19)
(0.597079 0.0355914 -1.01695e-19)
(0.712824 0.0439726 1.26918e-19)
(0.828468 0.0527131 -1.20939e-19)
(0.939019 0.0609261 -2.66152e-19)
(1.03971 0.0675143 3.84355e-19)
(1.12679 0.07183 -4.00917e-19)
(1.19796 0.0725775 1.13822e-19)
(1.25256 0.0708379 -1.3238e-19)
(1.29206 0.0634776 -1.00717e-19)
(1.31714 0.0569328 -8.3242e-19)
(1.33417 0.0410157 1.27816e-19)
(-0.00946113 0.0083664 2.68202e-20)
(-0.0216701 0.0181155 1.34124e-19)
(-0.0278882 0.0226556 4.45345e-19)
(-0.0269771 0.0238436 -1.051e-19)
(-0.0180521 0.0229161 -4.56706e-20)
(-0.000174579 0.020844 8.50188e-20)
(0.0276725 0.0184009 7.53149e-20)
(0.0665252 0.0162053 -2.92352e-19)
(0.117354 0.0147725 -1.34186e-19)
(0.180924 0.0145419 -4.09904e-19)
(0.257599 0.0158805 -3.04898e-19)
(0.347093 0.0190571 -2.13486e-19)
(0.448203 0.0241929 1.86419e-19)
(0.55859 0.0311969 -2.70154e-19)
(0.674706 0.0397089 -1.27549e-19)
(0.791971 0.0490845 -5.57839e-20)
(0.90523 0.0584219 -3.74801e-20)
(1.00947 0.0667367 7.98214e-19)
(1.10052 0.0729555 5.18397e-20)
(1.17579 0.0765287 -6.98155e-20)
(1.23436 0.0764265 -3.9318e-19)
(1.27692 0.0738133 1.27724e-19)
(1.30592 0.0659013 1.42002e-20)
(1.3224 0.0595346 4.72348e-19)
(1.33271 0.0400617 4.80152e-20)
(-0.0101256 0.00864767 2.12221e-19)
(-0.0222545 0.0184463 -2.04494e-19)
(-0.0270059 0.0228415 -3.10995e-19)
(-0.0234227 0.0237245 3.12275e-19)
(-0.0106718 0.0224326 -6.93003e-20)
(0.012165 0.0200342 -5.97801e-20)
(0.0460933 0.0173896 5.23002e-20)
(0.0921143 0.0151944 -7.41087e-20)
(0.151095 0.0140259 1.83657e-19)
(0.223575 0.0143631 1.17687e-19)
(0.309511 0.0165791 3.01354e-19)
(0.407986 0.0209028 -7.30405e-21)
(0.51695 0.027358 2.38222e-19)
(0.633076 0.0356991 -1.75636e-20)
(0.751857 0.0453716 2.44538e-19)
(0.868026 0.055539 6.90923e-20)
(0.976247 0.0651664 -4.49762e-19)
(1.07195 0.0732354 -2.1587e-19)
(1.152 0.0787764 -5.13355e-20)
(1.21513 0.0813905 1.41591e-19)
(1.26177 0.0803528 -6.69764e-20)
(1.29375 0.0768412 -2.37884e-19)
(1.31404 0.0686648 3.20238e-20)
(1.32389 0.0615763 -2.21363e-19)
(1.32988 0.0449833 -1.07625e-19)
(-0.0106559 0.00877518 1.30042e-19)
(-0.0224146 0.0184447 1.39231e-19)
(-0.0253477 0.0226359 2.55272e-19)
(-0.0186743 0.0232379 -1.85897e-19)
(-0.00161254 0.0216731 1.37904e-20)
(0.0267261 0.0190971 3.70565e-19)
(0.0673089 0.0164473 -1.06046e-19)
(0.121054 0.0144878 -3.50326e-19)
(0.188645 0.013847 -2.04959e-19)
(0.270279 0.0150277 2.72141e-19)
(0.365362 0.0183841 -5.58196e-19)
(0.472195 0.0240701 2.90036e-21)
(0.587765 0.0319709 -4.4129e-20)
(0.70774 0.0416481 3.39851e-19)
(0.826804 0.0523362 -1.79971e-19)
(0.939329 0.0630256 2.46247e-19)
(1.04024 0.0726058 2.44152e-19)
(1.12584 0.0801015 -4.2765e-19)
(1.19428 0.0847168 -1.76305e-19)
(1.24566 0.0862417 -1.4576e-19)
(1.28157 0.0842451 2.2198e-19)
(1.30461 0.0799271 3.49704e-19)
(1.31791 0.0714832 1.61852e-19)
(1.32291 0.0643298 -1.44009e-19)
(1.32565 0.0483829 -2.55141e-19)
(-0.0110292 0.00874639 -3.07609e-20)
(-0.0220918 0.0181008 1.30586e-19)
(-0.0228311 0.0220204 -2.59441e-19)
(-0.0126337 0.0223597 -3.98162e-19)
(0.00922854 0.0206138 -5.88919e-19)
(0.0435999 0.0180132 1.00491e-19)
(0.0913746 0.0155627 -1.17328e-19)
(0.153325 0.0140845 1.70907e-19)
(0.229856 0.0142442 6.29036e-20)
(0.320694 0.0165458 1.21527e-19)
(0.424543 0.0212925 1.31713e-19)
(0.538787 0.0285205 -7.21228e-20)
(0.659385 0.0379316 -1.01927e-19)
(0.781083 0.0488651 -2.25524e-19)
(0.898017 0.0603478 6.85604e-20)
(1.0046 0.071242 -2.60809e-19)
(1.09647 0.0804373 9.67283e-20)
(1.17109 0.0870789 5.97663e-20)
(1.228 0.0905953 -2.50601e-19)
(1.26854 0.0909791 -2.68133e-19)
(1.29516 0.0880637 -1.42165e-19)
(1.31089 0.0830326 8.34715e-21)
(1.31878 0.0744505 4.3612e-20)
(1.32026 0.0671132 -1.40025e-19)
(1.32055 0.0521603 1.06884e-19)
(-0.0112248 0.00856363 2.01193e-21)
(-0.0212316 0.0174156 -3.5891e-19)
(-0.0193763 0.0209918 4.58157e-19)
(-0.00520685 0.0210867 4.89977e-19)
(0.0219481 0.0192547 2.92128e-19)
(0.0628673 0.0167903 -1.01783e-20)
(0.118327 0.0147549 -1.05551e-19)