/*--------------------------------*- C++ -*----------------------------------*\
  =========                 |
  \\      /  F ield         | OpenFOAM: The Open Source CFD Toolbox
   \\    /   O peration     | Website:  https://openfoam.org
    \\  /    A nd           | Version:  7
     \\/     M anipulation  |
\*---------------------------------------------------------------------------*/
FoamFile
{
    version     2.0;
    format      ascii;
    class       volScalarField;
    location    "125";
    object      p;
}
// * * * * * * * * * * * * * * * * * * * * * * * * * * * * * * * * * * * * * //

dimensions      [0 2 -2 0 0 0 0];

internalField   nonuniform List<scalar> 
31800
(
-0.389017
-0.389966
-0.39044
-0.390865
-0.39151
-0.392598
-0.394305
-0.396738
-0.399959
-0.404006
-0.408903
-0.414671
-0.42131
-0.428795
-0.437045
-0.445901
-0.455095
-0.464222
-0.472713
-0.479828
-0.484667
-0.486211
-0.483416
-0.475503
-0.461584
-0.394399
-0.394963
-0.395274
-0.395617
-0.39625
-0.397404
-0.39926
-0.401936
-0.405502
-0.410007
-0.41549
-0.421982
-0.429502
-0.438033
-0.447504
-0.457757
-0.468514
-0.479343
-0.489627
-0.498554
-0.505122
-0.508176
-0.506485
-0.499142
-0.48471
-0.399652
-0.399823
-0.399963
-0.400213
-0.400822
-0.402025
-0.40401
-0.406902
-0.41078
-0.415704
-0.421722
-0.428879
-0.437202
-0.446688
-0.457269
-0.468788
-0.480954
-0.493307
-0.505188
-0.515715
-0.523794
-0.528147
-0.527346
-0.520419
-0.505232
-0.404729
-0.404504
-0.404467
-0.404612
-0.405182
-0.406415
-0.408502
-0.411577
-0.415727
-0.42102
-0.427515
-0.435263
-0.444304
-0.454637
-0.466201
-0.478834
-0.492233
-0.505914
-0.519175
-0.531073
-0.540425
-0.545857
-0.545727
-0.539049
-0.522958
-0.409582
-0.408966
-0.408744
-0.408779
-0.409291
-0.410529
-0.412688
-0.415907
-0.420282
-0.425889
-0.432791
-0.44105
-0.450709
-0.461772
-0.474178
-0.487762
-0.502206
-0.517001
-0.531414
-0.544441
-0.554823
-0.561104
-0.561432
-0.554858
-0.537715
-0.414172
-0.413175
-0.412766
-0.412678
-0.413115
-0.414332
-0.416527
-0.419846
-0.424393
-0.43025
-0.437486
-0.446166
-0.456336
-0.468004
-0.481104
-0.495466
-0.510759
-0.526453
-0.541777
-0.555689
-0.566852
-0.57376
-0.574321
-0.567731
-0.549388
-0.418466
-0.417105
-0.416507
-0.416285
-0.416627
-0.417794
-0.419986
-0.423357
-0.428019
-0.434057
-0.441546
-0.450552
-0.461124
-0.473266
-0.486909
-0.501874
-0.517818
-0.534191
-0.550193
-0.564747
-0.576448
-0.583762
-0.584331
-0.577608
-0.557933
-0.422436
-0.420732
-0.419948
-0.419583
-0.41981
-0.420894
-0.423042
-0.426413
-0.431127
-0.437275
-0.444933
-0.454168
-0.465028
-0.477512
-0.491548
-0.506945
-0.523348
-0.540188
-0.556641
-0.571607
-0.583608
-0.591116
-0.59147
-0.584493
-0.563371
-0.426062
-0.424044
-0.423078
-0.42256
-0.422652
-0.423623
-0.425682
-0.428999
-0.4337
-0.439882
-0.447624
-0.456991
-0.468025
-0.480725
-0.495007
-0.510672
-0.52735
-0.544459
-0.561153
-0.576313
-0.588389
-0.595887
-0.59581
-0.588446
-0.565787
-0.429329
-0.427032
-0.42589
-0.425213
-0.425151
-0.425976
-0.427903
-0.43111
-0.435733
-0.441873
-0.449612
-0.459014
-0.470116
-0.482908
-0.4973
-0.513079
-0.529865
-0.547062
-0.563803
-0.578959
-0.590899
-0.598192
-0.597478
-0.589578
-0.565314
-0.432235
-0.429697
-0.428389
-0.427548
-0.427314
-0.427961
-0.429711
-0.432753
-0.437231
-0.443255
-0.450909
-0.460253
-0.471319
-0.48409
-0.498466
-0.514221
-0.530965
-0.548088
-0.564703
-0.579676
-0.59129
-0.598186
-0.596642
-0.588034
-0.562127
-0.43478
-0.432045
-0.430583
-0.429575
-0.429153
-0.429593
-0.431124
-0.433946
-0.438216
-0.444051
-0.451539
-0.460737
-0.471674
-0.484321
-0.498568
-0.51418
-0.530751
-0.547662
-0.564001
-0.57863
-0.589741
-0.59605
-0.593493
-0.583986
-0.556432
-0.436975
-0.434088
-0.432487
-0.431313
-0.430688
-0.430894
-0.432166
-0.434717
-0.438718
-0.444297
-0.451543
-0.460517
-0.471238
-0.483671
-0.497693
-0.513058
-0.529347
-0.545928
-0.561862
-0.576002
-0.586445
-0.591976
-0.588235
-0.577624
-0.548457
-0.438836
-0.435845
-0.434121
-0.432783
-0.431947
-0.431894
-0.432871
-0.435105
-0.438782
-0.44404
-0.450978
-0.459655
-0.470086
-0.482227
-0.495945
-0.510979
-0.526896
-0.543048
-0.558464
-0.571981
-0.581599
-0.586153
-0.581068
-0.569146
-0.538453
-0.440386
-0.437339
-0.435511
-0.434014
-0.432958
-0.432628
-0.43328
-0.435155
-0.438458
-0.443342
-0.449912
-0.45823
-0.468309
-0.480094
-0.493443
-0.508079
-0.523551
-0.539191
-0.553988
-0.566752
-0.575387
-0.57876
-0.57218
-0.558764
-0.526681
-0.441654
-0.4386
-0.436686
-0.435036
-0.433757
-0.433135
-0.433436
-0.43492
-0.437809
-0.44227
-0.448423
-0.456332
-0.466007
-0.477387
-0.490316
-0.504503
-0.51947
-0.534525
-0.548606
-0.560484
-0.56797
-0.569956
-0.561749
-0.546703
-0.513421
-0.442674
-0.439658
-0.437679
-0.435885
-0.434382
-0.433458
-0.433391
-0.434457
-0.436898
-0.440902
-0.446598
-0.454059
-0.463292
-0.47423
-0.486701
-0.500395
-0.51481
-0.52921
-0.542475
-0.553323
-0.559485
-0.559883
-0.549942
-0.533204
-0.498966
-0.443485
-0.440551
-0.438524
-0.436596
-0.434872
-0.433642
-0.433195
-0.433826
-0.435798
-0.439318
-0.444531
-0.451515
-0.460279
-0.470749
-0.482736
-0.495906
-0.509719
-0.523388
-0.535726
-0.545384
-0.550041
-0.54867
-0.536931
-0.518533
-0.483628
-0.44413
-0.441316
-0.43926
-0.437206
-0.435266
-0.433731
-0.4329
-0.433089
-0.434581
-0.437603
-0.442316
-0.448808
-0.457088
-0.467073
-0.478556
-0.491169
-0.504326
-0.517178
-0.528459
-0.536755
-0.539727
-0.536444
-0.522901
-0.502976
-0.467725
-0.444657
-0.441996
-0.439924
-0.437756
-0.435608
-0.433772
-0.432562
-0.43231
-0.43332
-0.435841
-0.440049
-0.446044
-0.453834
-0.463324
-0.474283
-0.486304
-0.498741
-0.510669
-0.520745
-0.527495
-0.528621
-0.52334
-0.50806
-0.486833
-0.451568
-0.445115
-0.442632
-0.440558
-0.438285
-0.435937
-0.433811
-0.432231
-0.431548
-0.432086
-0.434114
-0.437825
-0.443327
-0.450626
-0.459614
-0.470027
-0.481409
-0.493044
-0.50392
-0.512626
-0.517651
-0.516807
-0.509512
-0.492641
-0.470407
-0.43545
-0.445559
-0.443272
-0.441203
-0.438833
-0.436297
-0.433893
-0.431961
-0.430865
-0.430949
-0.432502
-0.435731
-0.440751
-0.447564
-0.45604
-0.465878
-0.476558
-0.487286
-0.496962
-0.504123
-0.507263
-0.504384
-0.495135
-0.476891
-0.453985
-0.41962
-0.446044
-0.44396
-0.441901
-0.439441
-0.436728
-0.434065
-0.431802
-0.430318
-0.429976
-0.431078
-0.433847
-0.438401
-0.444732
-0.452681
-0.461899
-0.471794
-0.481488
-0.489799
-0.495252
-0.496385
-0.491477
-0.480405
-0.461059
-0.437819
-0.404275
-0.446627
-0.444744
-0.442695
-0.440151
-0.437274
-0.434371
-0.431802
-0.429962
-0.429225
-0.429909
-0.432244
-0.436347
-0.442195
-0.449591
-0.458127
-0.467131
-0.475645
-0.482424
-0.486027
-0.485089
-0.478234
-0.465528
-0.445381
-0.422112
-0.389556
-0.447365
-0.44567
-0.443628
-0.441003
-0.437974
-0.434852
-0.432008
-0.429846
-0.428751
-0.429051
-0.430979
-0.434644
-0.439998
-0.446799
-0.45457
-0.462559
-0.469737
-0.47483
-0.476483
-0.473476
-0.464818
-0.4507
-0.430062
-0.407014
-0.37555
-0.448314
-0.446783
-0.444741
-0.442036
-0.438867
-0.435549
-0.432461
-0.430014
-0.428599
-0.428549
-0.430093
-0.433325
-0.438162
-0.444307
-0.451211
-0.458045
-0.463732
-0.467015
-0.466671
-0.461664
-0.451394
-0.436092
-0.415259
-0.392599
-0.362285
-0.449526
-0.448127
-0.446072
-0.443288
-0.43999
-0.436499
-0.433198
-0.430502
-0.428804
-0.428434
-0.429611
-0.432402
-0.436682
-0.442093
-0.448011
-0.453546
-0.457607
-0.458997
-0.456669
-0.449792
-0.438116
-0.421839
-0.401059
-0.378818
-0.349696
-0.45105
-0.44974
-0.447657
-0.444791
-0.441374
-0.437731
-0.434248
-0.431337
-0.429388
-0.428722
-0.429537
-0.431866
-0.435533
-0.440113
-0.444917
-0.449018
-0.451346
-0.450815
-0.446573
-0.438001
-0.425128
-0.40806
-0.387474
-0.365429
-0.337611
-0.452929
-0.451656
-0.449527
-0.446576
-0.443047
-0.439271
-0.435631
-0.432534
-0.430361
-0.429411
-0.429857
-0.431687
-0.434667
-0.438308
-0.441872
-0.444422
-0.444953
-0.442524
-0.436486
-0.426425
-0.412555
-0.394886
-0.374506
-0.35211
-0.325857
-0.455196
-0.453907
-0.451709
-0.448664
-0.445029
-0.441134
-0.437359
-0.4341
-0.431717
-0.430487
-0.430541
-0.431819
-0.434025
-0.436615
-0.43882
-0.439733
-0.438447
-0.434191
-0.426513
-0.415179
-0.400506
-0.382452
-0.362246
-0.339034
-0.31443
-0.457877
-0.456514
-0.454222
-0.451073
-0.447333
-0.44333
-0.439435
-0.436026
-0.433441
-0.431918
-0.431544
-0.432203
-0.43354
-0.434967
-0.435715
-0.434938
-0.431859
-0.425888
-0.416747
-0.404349
-0.389054
-0.370828
-0.350835
-0.327413
-0.303731
-0.460991
-0.459494
-0.457082
-0.453816
-0.449966
-0.44586
-0.441852
-0.438299
-0.435504
-0.433664
-0.432813
-0.432773
-0.433141
-0.433304
-0.432521
-0.43004
-0.425233
-0.417684
-0.407262
-0.393993
-0.378239
-0.359989
-0.340231
-0.317507
-0.295196
-0.464548
-0.462858
-0.460297
-0.456897
-0.45293
-0.448719
-0.444598
-0.440895
-0.437874
-0.435679
-0.434287
-0.433463
-0.432763
-0.431575
-0.429217
-0.425053
-0.418612
-0.409638
-0.398115
-0.384142
-0.368066
-0.349889
-0.330479
-0.308566
-0.287339
-0.468553
-0.466609
-0.46387
-0.460318
-0.456223
-0.451898
-0.447657
-0.443789
-0.440511
-0.437912
-0.435905
-0.434206
-0.432346
-0.429741
-0.425791
-0.419998
-0.41204
-0.401797
-0.389339
-0.374804
-0.358514
-0.340478
-0.321455
-0.30036
-0.28019
-0.473002
-0.47075
-0.467804
-0.464078
-0.459838
-0.455387
-0.451009
-0.446952
-0.443377
-0.440311
-0.437608
-0.434941
-0.43184
-0.427772
-0.422246
-0.4149
-0.405555
-0.394195
-0.380947
-0.365969
-0.349545
-0.331688
-0.313064
-0.292732
-0.273431
-0.47789
-0.475277
-0.472095
-0.468174
-0.463769
-0.459174
-0.454637
-0.450355
-0.446432
-0.442827
-0.439339
-0.435614
-0.431205
-0.425653
-0.418588
-0.409786
-0.399186
-0.386852
-0.37294
-0.357611
-0.34111
-0.323451
-0.305213
-0.285568
-0.267012
-0.483205
-0.480187
-0.476742
-0.472601
-0.468012
-0.463249
-0.458522
-0.453973
-0.449637
-0.445411
-0.441046
-0.43618
-0.430409
-0.423374
-0.41483
-0.404679
-0.392953
-0.379772
-0.365302
-0.349695
-0.333156
-0.315699
-0.297821
-0.278791
-0.260869
-0.488938
-0.485473
-0.48174
-0.477358
-0.47256
-0.467603
-0.462648
-0.457777
-0.452956
-0.448018
-0.442681
-0.436599
-0.429433
-0.420936
-0.410987
-0.399597
-0.386869
-0.372953
-0.358012
-0.342181
-0.325629
-0.308367
-0.290821
-0.272337
-0.254963
-0.495076
-0.49113
-0.487086
-0.48244
-0.47741
-0.472228
-0.467002
-0.461744
-0.456352
-0.450604
-0.444204
-0.43684
-0.428263
-0.418342
-0.407074
-0.394555
-0.380936
-0.36638
-0.351038
-0.335026
-0.318476
-0.301398
-0.284151
-0.266156
-0.249262
-0.501609
-0.49715
-0.492777
-0.487848
-0.482561
-0.477117
-0.471566
-0.465847
-0.459788
-0.45313
-0.445577
-0.43688
-0.426893
-0.415601
-0.403103
-0.389559
-0.37515
-0.360036
-0.344349
-0.328184
-0.311645
-0.294738
-0.277762
-0.260204
-0.243732
-0.508523
-0.503528
-0.498808
-0.493578
-0.488008
-0.482262
-0.476323
-0.470056
-0.463229
-0.455554
-0.446768
-0.436701
-0.42532
-0.41272
-0.399082
-0.384612
-0.3695
-0.353895
-0.337908
-0.321614
-0.305089
-0.288338
-0.271606
-0.254443
-0.238346
-0.515805
-0.510254
-0.505175
-0.499627
-0.493746
-0.487652
-0.481252
-0.474341
-0.466633
-0.45784
-0.447749
-0.43629
-0.423545
-0.409707
-0.395019
-0.379711
-0.36397
-0.347931
-0.331681
-0.315274
-0.298765
-0.282156
-0.265644
-0.248837
-0.233076
-0.523442
-0.517319
-0.511871
-0.50599
-0.499767
-0.493269
-0.486327
-0.478664
-0.469962
-0.459951
-0.448496
-0.435639
-0.421571
-0.406567
-0.390912
-0.374845
-0.358542
-0.342115
-0.32563
-0.309123
-0.29263
-0.276151
-0.259839
-0.243356
-0.227897
-0.531424
-0.524709
-0.518886
-0.512655
-0.506056
-0.499092
-0.491514
-0.482986
-0.473173
-0.461853
-0.448989
-0.43474
-0.419399
-0.403302
-0.386758
-0.370003
-0.353193
-0.336417
-0.319721
-0.303125
-0.286648
-0.270287
-0.254157
-0.237972
-0.222787
-0.539716
-0.532408
-0.526205
-0.519609
-0.512593
-0.505091
-0.496775
-0.48726
-0.476223
-0.463514
-0.449211
-0.43359
-0.41703
-0.399912
-0.382551
-0.36517
-0.3479
-0.330808
-0.313921
-0.297244
-0.280783
-0.264531
-0.24857
-0.23266
-0.217725
-0.5483
-0.540393
-0.533807
-0.526829
-0.519349
-0.511229
-0.502063
-0.491438
-0.479068
-0.464902
-0.449145
-0.432182
-0.414462
-0.396391
-0.37828
-0.360326
-0.342637
-0.325258
-0.308197
-0.291448
-0.275004
-0.258853
-0.24305
-0.227395
-0.21269
-0.557143
-0.548637
-0.541668
-0.534286
-0.52629
-0.517459
-0.507325
-0.495466
-0.481664
-0.465989
-0.448776
-0.43051
-0.41169
-0.392733
-0.373929
-0.355451
-0.337379
-0.319738
-0.30252
-0.285707
-0.26928
-0.253226
-0.237572
-0.222158
-0.207666
-0.566208
-0.557107
-0.549752
-0.541941
-0.533368
-0.523728
-0.512502
-0.499289
-0.483968
-0.466747
-0.448089
-0.428566
-0.408709
-0.388926
-0.369484
-0.350524
-0.332101
-0.314221
-0.29686
-0.279991
-0.263586
-0.247625
-0.232113
-0.216926
-0.202634
-0.575448
-0.565759
-0.558019
-0.54975
-0.540529
-0.529974
-0.51753
-0.502849
-0.485936
-0.467148
-0.447071
-0.426342
-0.405507
-0.384956
-0.364924
-0.345522
-0.326778
-0.308679
-0.291191
-0.274275
-0.257895
-0.242026
-0.226653
-0.211684
-0.19758
-0.584809
-0.574547
-0.566419
-0.557657
-0.547711
-0.536126
-0.522339
-0.506088
-0.487526
-0.467166
-0.445704
-0.423824
-0.402072
-0.380808
-0.360232
-0.340422
-0.321384
-0.303088
-0.285487
-0.268534
-0.252184
-0.236407
-0.221172
-0.206413
-0.19249
-0.594231
-0.583413
-0.574893
-0.565598
-0.554841
-0.542109
-0.52686
-0.508949
-0.488699
-0.466776
-0.443972
-0.421
-0.398389
-0.376464
-0.355385
-0.335201
-0.315896
-0.297422
-0.279724
-0.262744
-0.246432
-0.230749
-0.215652
-0.201099
-0.187349
-0.603643
-0.592291
-0.583376
-0.573499
-0.561841
-0.547843
-0.53102
-0.511374
-0.489413
-0.465952
-0.441857
-0.417853
-0.39444
-0.371903
-0.350363
-0.329837
-0.31029
-0.29166
-0.27388
-0.256885
-0.240619
-0.225034
-0.210078
-0.195726
-0.182147
-0.61297
-0.601111
-0.591792
-0.581281
-0.568624
-0.553244
-0.534744
-0.513306
-0.489631
-0.464668
-0.43934
-0.414366
-0.390208
-0.367106
-0.345143
-0.324307
-0.304543
-0.285778
-0.267933
-0.250937
-0.234726
-0.219245
-0.204434
-0.190282
-0.176872
-0.622127
-0.609792
-0.600058
-0.588856
-0.575101
-0.558226
-0.53796
-0.514693
-0.489316
-0.462898
-0.4364
-0.410519
-0.385673
-0.362052
-0.339703
-0.318589
-0.298635
-0.279756
-0.261865
-0.244882
-0.228737
-0.213367
-0.198707
-0.184754
-0.171514
-0.631025
-0.618247
-0.608086
-0.596128
-0.581175
-0.5627
-0.540598
-0.515482
-0.488431
-0.460617
-0.433017
-0.406293
-0.380813
-0.356719
-0.334023
-0.312661
-0.292544
-0.273574
-0.255655
-0.238701
-0.222634
-0.207385
-0.192884
-0.179132
-0.166063
-0.639566
-0.626383
-0.615779
-0.603
-0.58675
-0.566581
-0.542589
-0.515623
-0.486943
-0.4578
-0.429168
-0.401667
-0.375607
-0.351087
-0.328081
-0.306504
-0.286252
-0.267215
-0.249289
-0.23238
-0.216405
-0.201287
-0.186953
-0.173404
-0.160512
-0.64765
-0.634102
-0.623036
-0.609367
-0.591725
-0.569782
-0.543866
-0.51507
-0.484819
-0.45442
-0.424831
-0.396618
-0.370034
-0.345133
-0.321856
-0.300099
-0.27974
-0.260661
-0.24275
-0.225905
-0.210036
-0.19506
-0.180904
-0.167563
-0.154854
-0.655173
-0.641302
-0.629753
-0.615124
-0.596004
-0.572221
-0.544367
-0.513779
-0.482025
-0.450453
-0.419984
-0.391125
-0.364074
-0.338838
-0.315331
-0.293427
-0.272992
-0.253897
-0.236022
-0.219261
-0.203515
-0.188695
-0.174728
-0.1616
-0.149081
-0.662027
-0.647877
-0.635822
-0.620164
-0.599488
-0.57382
-0.544035
-0.511708
-0.478534
-0.445873
-0.414604
-0.385167
-0.357705
-0.332182
-0.308486
-0.28647
-0.265991
-0.246908
-0.229095
-0.212437
-0.196832
-0.182182
-0.168415
-0.155506
-0.143188
-0.668104
-0.653718
-0.641133
-0.624382
-0.602085
-0.574504
-0.542814
-0.508819
-0.474315
-0.440658
-0.40867
-0.378725
-0.350908
-0.325148
-0.301304
-0.279215
-0.258723
-0.239682
-0.221955
-0.205422
-0.189976
-0.175512
-0.16196
-0.149278
-0.137175
-0.673294
-0.658718
-0.645577
-0.627675
-0.603705
-0.574204
-0.540656
-0.505078
-0.469342
-0.434785
-0.40216
-0.371777
-0.343666
-0.317718
-0.293771
-0.271646
-0.251177
-0.232206
-0.214592
-0.198207
-0.182939
-0.168678
-0.155356
-0.142913
-0.131044
-0.67749
-0.662769
-0.649049
-0.629942
-0.604263
-0.572857
-0.537516
-0.500452
-0.463592
-0.428232
-0.395057
-0.364306
-0.33596
-0.309877
-0.285871
-0.263752
-0.24334
-0.224471
-0.206996
-0.190784
-0.175714
-0.161673
-0.148595
-0.136407
-0.124799
-0.680587
-0.665765
-0.651442
-0.631088
-0.603683
-0.570404
-0.533353
-0.494914
-0.457041
-0.420981
-0.387341
-0.356296
-0.327776
-0.301611
-0.277593
-0.25552
-0.235202
-0.216467
-0.199161
-0.183145
-0.168294
-0.154491
-0.141671
-0.12975
-0.118418
-0.682483
-0.667604
-0.652659
-0.631025
-0.601894
-0.566797
-0.528135
-0.488438
-0.44967
-0.413013
-0.378998
-0.347731
-0.319101
-0.292907
-0.268925
-0.246941
-0.226755
-0.208188
-0.191079
-0.175285
-0.160675
-0.147128
-0.134584
-0.122933
-0.111838
-0.683083
-0.668189
-0.652605
-0.62967
-0.598833
-0.561991
-0.521831
-0.481003
-0.441462
-0.404315
-0.370011
-0.338598
-0.309922
-0.283756
-0.25986
-0.238008
-0.217992
-0.199627
-0.182746
-0.1672
-0.152853
-0.139582
-0.127332
-0.115958
-0.105028
-0.682294
-0.667429
-0.651193
-0.626951
-0.594445
-0.555948
-0.514416
-0.472594
-0.432403
-0.394872
-0.360371
-0.328888
-0.30023
-0.274149
-0.250389
-0.228714
-0.208909
-0.190781
-0.174158
-0.158887
-0.144826
-0.131852
-0.119911
-0.108826
-0.098136
-0.680036
-0.665239
-0.648345
-0.622802
-0.588683
-0.54864
-0.505873
-0.463195
-0.422482
-0.384676
-0.350068
-0.318591
-0.290019
-0.264081
-0.240509
-0.219056
-0.199501
-0.181645
-0.165312
-0.150343
-0.136593
-0.12394
-0.11233
-0.101519
-0.0911665
-0.676232
-0.661542
-0.643991
-0.617168
-0.581511
-0.540044
-0.496188
-0.452799
-0.411692
-0.373719
-0.339095
-0.307702
-0.279282
-0.253547
-0.230214
-0.20903
-0.189766
-0.172219
-0.156208
-0.141571
-0.128156
-0.115845
-0.104579
-0.0940651
-0.0840756
-0.670816
-0.656273
-0.638071
-0.610004
-0.5729
-0.530144
-0.485353
-0.441401
-0.400028
-0.361997
-0.32745
-0.296219
-0.268018
-0.242544
-0.219502
-0.198639
-0.179706
-0.162506
-0.146848
-0.132569
-0.119513
-0.107567
-0.0966622
-0.0864663
-0.0768489
-0.663733
-0.649374
-0.630536
-0.601274
-0.562829
-0.518932
-0.473365
-0.428999
-0.387491
-0.349511
-0.315131
-0.284139
-0.256227
-0.231073
-0.208367
-0.187891
-0.169324
-0.152503
-0.137232
-0.123339
-0.110669
-0.0991088
-0.0885824
-0.0787225
-0.0694872
-0.654937
-0.640798
-0.621346
-0.590954
-0.551287
-0.506407
-0.460227
-0.415597
-0.374083
-0.336263
-0.30214
-0.271466
-0.243911
-0.21914
-0.196842
-0.176761
-0.158618
-0.142216
-0.127363
-0.113886
-0.101626
-0.0904736
-0.080344
-0.0708344
-0.0619953
-0.644392
-0.630508
-0.610473
-0.579028
-0.538274
-0.492573
-0.445947
-0.401204
-0.359811
-0.322255
-0.288477
-0.258209
-0.23108
-0.206751
-0.184908
-0.165277
-0.147595
-0.13165
-0.117248
-0.104214
-0.0923883
-0.0816663
-0.0719513
-0.0628055
-0.054379
-0.632074
-0.618481
-0.597901
-0.565493
-0.523793
-0.477442
-0.430539
-0.385832
-0.344686
-0.307497
-0.274145
-0.244389
-0.217738
-0.19391
-0.172573
-0.153443
-0.136262
-0.12081
-0.106891
-0.0943291
-0.082963
-0.0726926
-0.0634094
-0.0546408
-0.0466444
-0.617971
-0.604701
-0.583624
-0.550354
-0.507862
-0.461034
-0.414022
-0.369498
-0.328721
-0.292007
-0.259202
-0.229973
-0.203893
-0.180627
-0.159849
-0.141268
-0.124628
-0.109705
-0.0963014
-0.0842387
-0.0733566
-0.0635593
-0.0547247
-0.0463467
-0.0387979
-0.60208
-0.589168
-0.567647
-0.533626
-0.490501
-0.443374
-0.396419
-0.352222
-0.311934
-0.27581
-0.243619
-0.215007
-0.189559
-0.166915
-0.146746
-0.128762
-0.112703
-0.0983444
-0.0854874
-0.0739515
-0.0635775
-0.0542742
-0.0459044
-0.0379304
-0.0308465
-0.584411
-0.571889
-0.549986
-0.515334
-0.47174
-0.424492
-0.37776
-0.334032
-0.294359
-0.258909
-0.227421
-0.199506
-0.174752
-0.152787
-0.13328
-0.115936
-0.100499
-0.0867395
-0.0744596
-0.0634772
-0.0536349
-0.0448461
-0.0369568
-0.0294005
-0.022798
-0.564985
-0.552885
-0.530667
-0.49551
-0.451617
-0.404427
-0.358078
-0.314957
-0.276012
-0.241335
-0.210631
-0.183488
-0.159491
-0.138261
-0.119464
-0.102807
-0.0880284
-0.0749026
-0.0632296
-0.0528269
-0.0435394
-0.0352849
-0.0278915
-0.0207663
-0.0146609
-0.543834
-0.532186
-0.509727
-0.474198
-0.43018
-0.383221
-0.337408
-0.295029
-0.256923
-0.223114
-0.193274
-0.166975
-0.143796
-0.123355
-0.105318
-0.0893879
-0.0753068
-0.0628476
-0.0518103
-0.0420128
-0.0333026
-0.0256016
-0.0187187
-0.0120383
-0.00644468
-0.520999
-0.509832
-0.487211
-0.451452
-0.407487
-0.360915
-0.315793
-0.274287
-0.237127
-0.204277
-0.175379
-0.149992
-0.12769
-0.108091
-0.0908591
-0.0756982
-0.0623504
-0.0505894
-0.040216
-0.0310482
-0.0229371
-0.0158079
-0.00944988
-0.00322791
0.00184022
-0.49653
-0.485875
-0.463176
-0.427337
-0.383596
-0.337543
-0.293284
-0.252773
-0.21666
-0.184856
-0.156975
-0.132565
-0.111198
-0.0924919
-0.0761093
-0.0617567
-0.0491767
-0.0381446
-0.0284618
-0.0199474
-0.0124565
-0.00591667
-9.71763e-05
0.0056522
0.0101819
-0.470484
-0.460377
-0.437692
-0.401925
-0.358499
-0.313214
-0.269933
-0.230532
-0.195565
-0.164889
-0.138095
-0.114725
-0.094348
-0.0765817
-0.0610912
-0.0475842
-0.035805
-0.0255306
-0.0165639
-0.00872567
-0.00187535
0.00405828
0.00932615
0.014588
0.0185671
-0.44293
-0.433412
-0.410843
-0.37527
-0.332302
-0.287956
-0.245793
-0.207613
-0.173884
-0.144414
-0.118775
-0.0965036
-0.077168
-0.0603874
-0.0458291
-0.0332028
-0.0222554
-0.0127661
-0.00453971
0.0026008
0.00879101
0.0141024
0.0188055
0.023563
0.0269803
-0.413941
-0.405061
-0.382703
-0.347342
-0.30517
-0.261845
-0.220925
-0.184071
-0.151665
-0.123474
-0.0990536
-0.0779356
-0.0596898
-0.0439376
-0.0303488
-0.0186362
-0.00854952
0.000129163
0.00759286
0.0140153
0.0195267
0.0242004
0.0283252
0.0325575
0.0353991
-0.383599
-0.375416
-0.353277
-0.318381
-0.277107
-0.23495
-0.195391
-0.159959
-0.128957
-0.102113
-0.0789701
-0.0590572
-0.0419464
-0.0272621
-0.0146777
-0.00390914
0.0052901
0.0131348
0.019815
0.0255004
0.0303154
0.0343369
0.0378695
0.0415504
0.0437924
-0.351987
-0.344589
-0.322658
-0.288466
-0.248199
-0.207346
-0.169257
-0.135336
-0.105812
-0.0803786
-0.0585672
-0.039907
-0.0239727
-0.0103927
0.00115571
0.0109524
0.0192399
0.0262292
0.0321074
0.0370384
0.04114
0.0444962
0.0474254
0.0505262
0.0521397
-0.319181
-0.312622
-0.291086
-0.257658
-0.218532
-0.179108
-0.14259
-0.110264
-0.0822855
-0.0583193
-0.0378893
-0.020525
-0.00580508
0.00663773
0.0171215
0.0259213
0.0332753
0.0393906
0.04445
0.0486103
0.0519821
0.0546624
0.0569833
0.0594773
0.060439
-0.285327
-0.279678
-0.258616
-0.226053
-0.188197
-0.150316
-0.115463
-0.0848044
-0.058433
-0.0359864
-0.0169825
-0.00095307
0.0125187
0.023795
0.0331885
0.0409695
0.0473711
0.052596
0.0568223
0.0601969
0.0628237
0.0648227
0.0665357
0.0683719
0.0685948
-0.250684
-0.245739
-0.225328
-0.19375
-0.157285
-0.121052
-0.0879465
-0.0590233
-0.0343135
-0.0134326
0.00410539
0.0187657
0.0309596
0.0410436
0.0493249
0.0560681
0.0615011
0.0658224
0.0692035
0.0717795
0.0736519
0.0749761
0.0760729
0.0770897
0.0762526
-0.215236
-0.210995
-0.191332
-0.160854
-0.12589
-0.0913989
-0.0601168
-0.0329874
-0.00998732
0.00928751
0.0253253
0.0385867
0.0494773
0.0583472
0.0654976
0.0711872
0.0756387
0.0790455
0.0815719
0.0833408
0.0844612
0.0851328
0.0855782
0.0854682
0.0831031
-0.179079
-0.17559
-0.15674
-0.127469
-0.0941081
-0.0614439
-0.0320501
-0.00676559
0.0144838
0.0321184
0.0466267
0.0584645
0.0680305
0.0756683
0.0816727
0.0862962
0.089756
0.0922404
0.0939048
0.0948638
0.0952461
0.0952876
0.0950097
0.0935428
0.089935
-0.142345
-0.139645
-0.12167
-0.0937038
-0.0620379
-0.0312739
-0.00382445
0.0195723
0.0390369
0.0550031
0.0679584
0.0783525
0.0865772
0.0929689
0.0978157
0.101364
0.103825
0.105381
0.106179
0.106331
0.105988
0.10539
0.104289
0.10153
0.0992185
-0.105166
-0.103282
-0.0862431
-0.0596682
-0.029778
-0.000977412
0.024481
0.0459554
0.0636081
0.0778839
0.0892681
0.0982036
0.105075
0.11021
0.113892
0.116358
0.117816
0.118441
0.118372
0.117721
0.116657
0.115375
0.113444
0.109967
0.108494
-0.0676704
-0.0666243
-0.0505786
-0.0254732
0.00257164
0.0293562
0.0527865
0.0723118
0.0881327
0.100702
0.110503
0.11797
0.123479
0.127353
0.129865
0.131247
0.131701
0.131394
0.13046
0.129013
0.127225
0.125238
0.122557
0.11862
0.117283
-0.0299905
-0.0297983
-0.0147981
0.00876966
0.0349106
0.0596374
0.0810117
0.0985695
0.112546
0.1234
0.13161
0.137603
0.141748
0.144358
0.145699
0.145998
0.145449
0.144212
0.142418
0.14018
0.137667
0.134975
0.131621
0.1273
0.125775
0.00774249
0.00706916
0.0209769
0.042949
0.0671388
0.0897763
0.109076
0.124656
0.136782
0.145917
0.152535
0.157055
0.159836
0.161184
0.161359
0.160578
0.15903
0.15687
0.154221
0.151198
0.14796
0.144574
0.140594
0.135875
0.133994
0.045397
0.0438506
0.0566253
0.0769538
0.099156
0.119683
0.1369
0.150499
0.160775
0.168196
0.173226
0.176277
0.1777
0.177793
0.176807
0.174955
0.172415
0.169338
0.165844
0.162043
0.158085
0.15402
0.149439
0.144296
0.141968
0.0828419
0.0804189
0.0920265
0.110674
0.130863
0.14927
0.164402
0.176027
0.184462
0.190176
0.193628
0.195221
0.195297
0.194145
0.19201
0.189095
0.185574
0.181591
0.177261
0.172692
0.168021
0.16329
0.158123
0.152534
0.14971
0.119947
0.116647
0.127061
0.144
0.162162
0.178448
0.191505
0.201168
0.207776
0.2118
0.21369
0.21384
0.212583
0.210201
0.206929
0.202966
0.198477
0.193602
0.188448
0.18312
0.177749
0.172365
0.166621
0.160573
0.157224
0.156584
0.152411
0.161612
0.176824
0.192957
0.20713
0.218129
0.225852
0.230656
0.23301
0.233358
0.232085
0.229515
0.225921
0.221531
0.216536
0.211096
0.205342
0.19938
0.193307
0.187247
0.181223
0.174912
0.168401
0.164509
0.192625
0.187587
0.195563
0.209042
0.223151
0.235232
0.244199
0.250009
0.253037
0.253749
0.252582
0.24991
0.246051
0.241268
0.235781
0.229774
0.223401
0.216787
0.210032
0.20323
0.196495
0.189845
0.182978
0.176004
0.171562
0.227947
0.222055
0.2288
0.240549
0.252653
0.26267
0.269639
0.273572
0.274858
0.273962
0.271311
0.267271
0.262149
0.256203
0.249644
0.242649
0.235365
0.227911
0.220383
0.212868
0.205475
0.198214
0.190803
0.183371
0.178377
0.262428
0.255696
0.261214
0.271246
0.281372
0.289363
0.294376
0.296474
0.29606
0.293594
0.289495
0.284121
0.27777
0.27069
0.263087
0.25513
0.246959
0.238689
0.230408
0.222201
0.214167
0.206312
0.198372
0.190491
0.184945
0.295949
0.288395
0.292698
0.301034
0.309219
0.31523
0.318338
0.318652
0.316585
0.312593
0.307088
0.300418
0.292873
0.284694
0.276077
0.267188
0.258158
0.249096
0.240087
0.231209
0.222553
0.214122
0.205672
0.197353
0.191261
0.328397
0.320043
0.323146
0.32982
0.336111
0.340197
0.341457
0.340041
0.336374
0.330906
0.324041
0.316119
0.307421
0.298179
0.288585
0.278794
0.268935
0.259109
0.249397
0.239871
0.230616
0.221629
0.212687
0.203944
0.197314
0.35966
0.350531
0.35246
0.357513
0.361965
0.36419
0.363665
0.360584
0.355375
0.348486
0.340312
0.331184
0.321376
0.311113
0.300578
0.289922
0.279266
0.268706
0.258318
0.248171
0.238339
0.228819
0.219406
0.210253
0.203098
0.389633
0.379758
0.380545
0.384025
0.386704
0.387138
0.3849
0.38022
0.373534
0.365284
0.355856
0.345574
0.334704
0.323463
0.312028
0.300544
0.289126
0.277865
0.266831
0.256089
0.245707
0.235677
0.225815
0.21627
0.208603
0.418215
0.407626
0.407308
0.409275
0.410252
0.408974
0.405101
0.398897
0.390802
0.381255
0.370633
0.359252
0.34737
0.335199
0.322908
0.310636
0.298493
0.286565
0.274918
0.26361
0.252703
0.242189
0.231902
0.221982
0.213821
0.445311
0.434041
0.432664
0.433184
0.43254
0.429634
0.42421
0.416561
0.407132
0.396356
0.384603
0.372182
0.359343
0.346291
0.333191
0.320174
0.307346
0.294787
0.282559
0.270717
0.259315
0.248343
0.237655
0.227381
0.218745
0.470829
0.458917
0.456532
0.455678
0.4535
0.449058
0.442173
0.433164
0.422479
0.410547
0.397731
0.384331
0.370593
0.356714
0.342853
0.329136
0.315663
0.302512
0.289739
0.277395
0.265527
0.254126
0.243062
0.232455
0.223368
0.494686
0.482173
0.478836
0.476688
0.473072
0.467192
0.458939
0.448659
0.436802
0.42379
0.409981
0.395669
0.381091
0.36644
0.351869
0.3375
0.323427
0.309723
0.296442
0.28363
0.271328
0.259527
0.248114
0.237195
0.227681
0.516802
0.503732
0.499506
0.496152
0.491197
0.483981
0.474462
0.463004
0.450061
0.43605
0.421322
0.406165
0.390811
0.375446
0.360219
0.345246
0.330618
0.316404
0.302654
0.289408
0.276705
0.264534
0.2528
0.241592
0.23168
0.537108
0.523526
0.518477
0.514009
0.507822
0.49938
0.488698
0.47616
0.462222
0.447295
0.431725
0.415795
0.399729
0.383711
0.367883
0.352358
0.337222
0.32254
0.30836
0.294719
0.281648
0.26914
0.257112
0.245639
0.235357
0.555536
0.541491
0.53569
0.530208
0.5229
0.513345
0.501607
0.488091
0.473251
0.457495
0.441164
0.424533
0.407824
0.391214
0.374842
0.358818
0.343222
0.328118
0.31355
0.29955
0.286147
0.273333
0.261041
0.249328
0.238708
0.572028
0.55757
0.551094
0.5447
0.536388
0.525836
0.513156
0.498765
0.48312
0.466624
0.449613
0.432357
0.415075
0.397938
0.381082
0.364611
0.348607
0.333126
0.318211
0.303892
0.290193
0.277107
0.264579
0.252652
0.241728
0.586533
0.571714
0.564642
0.557444
0.548249
0.536821
0.523313
0.508155
0.491804
0.47466
0.457053
0.43925
0.421465
0.403866
0.386586
0.369726
0.353363
0.337553
0.322335
0.307736
0.293777
0.280453
0.26772
0.255605
0.244412
0.599007
0.58388
0.576294
0.568404
0.558448
0.546269
0.532051
0.516236
0.49928
0.481581
0.463464
0.445194
0.426979
0.408986
0.391343
0.374151
0.357481
0.34139
0.325912
0.311075
0.296894
0.283366
0.270457
0.258182
0.246756
0.609411
0.594032
0.586017
0.57755
0.566961
0.554155
0.539348
0.522988
0.505531
0.487372
0.468833
0.450175
0.431605
0.413286
0.395344
0.377875
0.360953
0.344628
0.328937
0.313902
0.299538
0.285841
0.272787
0.260378
0.248759
0.617717
0.602141
0.593785
0.584857
0.573764
0.560461
0.545186
0.528394
0.510541
0.492018
0.473146
0.454183
0.435333
0.416756
0.398578
0.380893
0.363771
0.347263
0.331403
0.316212
0.301703
0.287874
0.274705
0.262191
0.250416
0.623901
0.608186
0.599577
0.590307
0.578841
0.565172
0.549552
0.532443
0.514299
0.49551
0.476395
0.457209
0.438154
0.419391
0.401041
0.383198
0.365931
0.349289
0.333306
0.318001
0.303386
0.28946
0.276207
0.263617
0.251729
0.627949
0.612152
0.60338
0.593889
0.582182
0.568277
0.552437
0.535126
0.516798
0.497841
0.478573
0.459247
0.440065
0.421184
0.402727
0.384786
0.367428
0.350703
0.334643
0.319267
0.304586
0.290598
0.277293
0.264657
0.252699
0.629854
0.614032
0.605188
0.595596
0.583781
0.569772
0.553837
0.536439
0.518034
0.499009
0.479678
0.460296
0.441062
0.422135
0.403635
0.385655