/*--------------------------------*- C++ -*----------------------------------*\
  =========                 |
  \\      /  F ield         | OpenFOAM: The Open Source CFD Toolbox
   \\    /   O peration     | Website:  https://openfoam.org
    \\  /    A nd           | Version:  7
     \\/     M anipulation  |
\*---------------------------------------------------------------------------*/
FoamFile
{
    version     2.0;
    format      ascii;
    class       surfaceScalarField;
    location    "125";
    object      phi;
}
// * * * * * * * * * * * * * * * * * * * * * * * * * * * * * * * * * * * * * //

dimensions      [0 3 -1 0 0 0 0];

internalField   nonuniform List<scalar> 
63130
(
-1.22821e-06
0.000106777
-0.000105549
-5.61465e-06
0.000282118
-0.000277731
-1.38138e-05
0.000429829
-0.00042163
-2.61775e-05
0.000550059
-0.000537695
-4.27493e-05
0.000644675
-0.000628103
-6.33217e-05
0.000717154
-0.000696582
-8.75218e-05
0.00077195
-0.00074775
-0.000114894
0.000813698
-0.000786326
-0.000144965
0.000846411
-0.000816341
-0.000177273
0.000872806
-0.000840498
-0.000211372
0.000893906
-0.000859807
-0.000246799
0.000908911
-0.000873484
-0.000283032
0.00091528
-0.000879047
-0.000319436
0.000908905
-0.000872502
-0.000355212
0.000884313
-0.000848537
-0.000389362
0.00083482
-0.00080067
-0.000420663
0.000752699
-0.000721397
-0.00044767
0.000629398
-0.000602392
-0.000468725
0.000455909
-0.000434854
-0.00048199
0.000223325
-0.000210059
-0.00048544
-7.62954e-05
7.97449e-05
-0.00047692
-0.000448848
0.000440329
-0.000454059
-0.000896568
0.000873707
-0.000415235
-0.00141462
0.0013758
-0.00199355
0.00193773
-0.000359411
-5.79155e-07
0.000107356
-3.38862e-06
0.000284927
-9.3324e-06
0.000435772
-1.89622e-05
0.000559689
-3.24645e-05
0.000658177
-4.97097e-05
0.0007344
-7.03391e-05
0.000792579
-9.38559e-05
0.000837215
-0.000119702
0.000872258
-0.000147308
0.000900412
-0.000176105
0.000922703
-0.000205513
0.000938319
-0.000234904
0.000944671
-0.000263562
0.000937563
-0.00029064
0.000911392
-0.000315136
0.000859316
-0.000335884
0.000773447
-0.000351567
0.000645082
-0.000360741
0.000465083
-0.000361857
0.00022444
-0.000353226
-8.49258e-05
-0.000333029
-0.000469046
-0.000299033
-0.000930563
-0.000249801
-0.00146386
-0.00206036
-0.000182986
7.45682e-08
0.000107282
-1.11989e-06
0.000286121
-4.72109e-06
0.000439374
-1.14687e-05
0.000566436
-2.169e-05
0.000668398
-3.53326e-05
0.000748042
-5.20537e-05
0.000809301
-7.1316e-05
0.000856478
-9.24756e-05
0.000893417
-0.000114847
0.000922783
-0.000137735
0.000945591
-0.000160435
0.000961019
-0.000182208
0.000966444
-0.000202253
0.000957608
-0.00021968
0.000928819
-0.000233486
0.000873123
-0.000242573
0.000782533
-0.000245762
0.000648271
-0.000241821
0.000461142
-0.000229507
0.000212126
-0.000207428
-0.000107005
-0.000174122
-0.000502352
-0.000127416
-0.00097727
-6.60334e-05
-0.00152524
-0.00213974
1.33459e-05
7.25015e-07
0.000106557
1.15525e-06
0.000285691
-4.47473e-08
0.000440574
-3.80348e-06
0.000570195
-1.05713e-05
0.000675166
-2.03759e-05
0.000757847
-3.2895e-05
0.00082182
-4.75533e-05
0.000871136
-6.36238e-05
0.000909488
-8.03062e-05
0.000939466
-9.67761e-05
0.000962061
-0.000112201
0.000976443
-0.000125731
0.000979974
-0.00013648
0.000968357
-0.000143521
0.00093586
-0.000145856
0.000875457
-0.000142458
0.000779135
-0.00013229
0.000638102
-0.000114318
0.00044317
-8.7597e-05
0.000185405
-5.09915e-05
-0.000143611
-3.37651e-06
-0.000549967
5.70709e-05
-0.00103772
0.000132468
-0.00160064
-0.00223218
0.000224909
1.35505e-06
0.000105202
3.39736e-06
0.000283649
4.6086e-06
0.000439362
3.91528e-06
0.000570888
7.32658e-07
0.000678349
-5.04867e-06
0.000763628
-1.3123e-05
0.000829894
-2.28859e-05
0.000880899
-3.35337e-05
0.000920135
-4.41561e-05
0.000950088
-5.38027e-05
0.000971707
-6.15156e-05
0.000984156
-6.63366e-05
0.000984795
-6.72939e-05
0.000969314
-6.34366e-05
0.000932003
-5.37676e-05
0.000865788
-3.73395e-05
0.000762707
-1.32634e-05
0.000614026
1.92562e-05
0.000410651
6.11725e-05
0.000143489
0.000113199
-0.000195637
0.000176249
-0.000613018
0.000252241
-0.00111371
0.000341848
-0.00169024
-0.00233984
0.000449506
1.95657e-06
0.000103245
5.56861e-06
0.000280037
9.17421e-06
0.000435757
1.15636e-05
0.000568499
1.2039e-05
0.000677873
1.04197e-05
0.000765247
6.97603e-06
0.000833338
2.33572e-06
0.000885539
-2.62998e-06
0.000925101
-6.91055e-06
0.000954369
-9.43708e-06
0.000974234
-9.13277e-06
0.000983852
-4.93917e-06
0.000980602
4.16071e-06
0.000960214
1.92502e-05
0.000916913
4.12248e-05
0.000843814
7.0985e-05
0.000732947
0.000109324
0.000575687
0.000156933
0.000363042
0.000214362
8.60596e-05
0.000282398
-0.000263673
0.000361724
-0.000692343
0.00045419
-0.00120618
0.000560255
-0.00179631
-0.0024639
0.000684312
2.51817e-06
0.000100727
7.63029e-06
0.000274925
1.35682e-05
0.000429819
1.90141e-05
0.000563053
2.31721e-05
0.000673715
2.5787e-05
0.000762633
2.70957e-05
0.000832029
2.77363e-05
0.000884899
2.86335e-05
0.000924204
3.08855e-05
0.000952117
3.56676e-05
0.000969452
4.41661e-05
0.000975353
5.75388e-05
0.000967229
7.68995e-05
0.000940854
0.000103265
0.000890548
0.000137603
0.000809476
0.00018074
0.000689809
0.000233371
0.000523056
0.000296072
0.000300341
0.00036932
1.2812e-05
0.000453839
-0.000348192
0.000550272
-0.000788776
0.000660346
-0.00131625
0.000784488
-0.00192045
-0.00260592
0.000926505
3.02949e-06
9.76973e-05
9.54512e-06
0.000268409
1.77128e-05
0.000421651
2.61372e-05
0.000554629
3.39413e-05
0.000665911
4.08019e-05
0.000755772
4.69167e-05
0.000825914
5.29229e-05
0.000878892
5.97834e-05
0.000917343
6.86668e-05
0.000943234
8.08398e-05
0.000957279
9.75847e-05
0.000958608
0.000120144
0.000944669
0.000149688
0.00091131
0.000187274
0.000852962
0.00023385
0.0007629
0.000290207
0.000633453
0.000356979
0.000456284
0.000434694
0.000222626
0.000523818
-7.63121e-05
0.000625127
-0.000449501
0.000739384
-0.000903033
0.000868111
-0.00144498
0.0010118
-0.00206413
-0.00276736
0.00117324
3.48134e-06
9.42159e-05
1.12786e-05
0.000260612
2.15339e-05
0.000411396
3.28068e-05
0.000543356
4.416e-05
0.000654558
5.52106e-05
0.000744721
6.61142e-05
0.000815011
7.74948e-05
0.000867512
9.03367e-05
0.000904501
0.00010586
0.00092771
0.000125405
0.000937734
0.000150333
0.000933681
0.000181959
0.000913043
0.000221506
0.000871763
0.000270064
0.000804404
0.000328577
0.000704387
0.000397821
0.000564209
0.000478419
0.000375686
0.00057092
0.000130125
0.000675874
-0.000181266
0.000794194
-0.000567821
0.000926944
-0.00103578
0.00107529
-0.00159333
0.00123979
-0.00222864
-0.0029493
0.00142174
3.86586e-06
9.03501e-05
1.28e-05
0.000251678
2.49629e-05
0.000399233
3.89038e-05
0.000529415
5.36484e-05
0.000639814
6.8765e-05
0.000729605
8.43661e-05
0.000799409
0.000101052
0.000850825
0.000119812
0.000885742
0.000141897
0.000905625
0.000168699
0.000910933
0.000201642
0.000900738
0.000242101
0.000872584
0.000291345
0.000822519
0.000350496
0.000745253
0.000420514
0.000634369
0.000502192
0.00048253
0.000596198
0.00028168
0.000703184
2.31398e-05
0.000823899
-0.000301981
0.000959456
-0.000703378
0.00111137
-0.0011877
0.00128024
-0.00176219
0.00146655
-0.00241494
-0.00315218
0.00166942
4.17675e-06
8.61733e-05
1.4083e-05
0.000241772
2.79395e-05
0.000385377
4.43197e-05
0.000513035
6.22382e-05
0.000621895
8.12287e-05
0.000710614
0.000101362
0.000779276
0.000123208
0.00082898
0.000147741
0.000861209
0.000176225
0.000877141
0.000210082
0.000877075
0.000250781
0.000860039
0.000299744
0.000823621
0.000358282
0.000763981
0.000427554
0.00067598
0.00050856
0.000553363
0.000602157
0.000388933
0.000709121
0.000174716
0.000830325
-9.80639e-05
0.00096681
-0.000438466
0.00111994
-0.000856508
0.00129175
-0.00135951
0.00148193
-0.00195238
0.00169061
-0.00262362
-0.00337538
0.00191382
4.40936e-06
8.1764e-05
1.51068e-05
0.000231074
3.04128e-05
0.000370071
4.896e-05
0.000494487
6.97789e-05
0.000601076
9.23852e-05
0.000688008
0.000116814
0.000754847
0.000143595
0.000802198
0.00017368
0.000831124
0.000208322
0.000842499
0.000248957
0.00083644
0.000297079
0.000811917
0.000354144
0.000766555
0.000421507
0.000696618
0.000500379
0.000597109
0.000591832
0.00046191
0.000696847
0.000283919
0.0008164
5.51628e-05
0.000951667
-0.000233331
0.00110413
-0.000590928
0.00127537
-0.00102775
0.00146784
-0.00155198
0.00167993
-0.00216446
0.00191093
-0.00285462
-0.00361711
0.00215266
4.56073e-06
7.72032e-05
1.58563e-05
0.000219778
3.23434e-05
0.000353584
5.27475e-05
0.000474083
7.61428e-05
0.000577681
0.000102045
0.000662105
0.000130462
0.00072643
0.000161885
0.000770776
0.000197226
0.000795783
0.000237716
0.000802008
0.000284785
0.000789372
0.000339937
0.000756765
0.00040466
0.000701832
0.000480355
0.000620924
0.000568308
0.000509155
0.000669715
0.000360503
0.000785748
0.000167886
0.000917706
-7.67948e-05
0.00106714
-0.000382764
0.00123607
-0.000759855
0.0014262
-0.00121788
0.00164009
-0.00176587
0.00187425
-0.00239863
0.00212657
-0.00310694
-0.00387414
0.0023836
4.62961e-06
7.25736e-05
1.63224e-05
0.000208086
3.37044e-05
0.000336201
5.56252e-05
0.000452163
8.12296e-05
0.000552076
0.000110055
0.00063328
0.000142093
0.000694393
0.000177795
0.000735074
0.000218032
0.000755546
0.000264
0.00075604
0.000317108
0.000736264
0.000378866
0.000695007
0.00045079
0.000629908
0.000534345
0.000537369
0.000630931
0.000412569
0.00074193
0.000249504
0.000868802
4.10135e-05
0.00101326
-0.000221251
0.00117733
-0.000546834
0.00136354
-0.000946064
0.00157353
-0.00142787
0.00180934
-0.00200168
0.002065
-0.00265429
0.00233633
-0.00337828
-0.00414182
0.00260402
4.61643e-06
6.79572e-05
1.65026e-05
0.0001962
3.44827e-05
0.000318221
5.75586e-05
0.000429087
8.49722e-05
0.000524663
0.000116304
0.000601948
0.000151541
0.000659155
0.000191107
0.000695508
0.000235827
0.000710827
0.000286856
0.00070501
0.000345582
0.000677539
0.000413515
0.000627074
0.000492213
0.000551209
0.000583236
0.000446347
0.000688151
0.000307653
0.000808606
0.000129049
0.000946461
-9.68419e-05
0.00110391
-0.0003787
0.0012835
-0.000726419
0.00148809
-0.00115066
0.00171888
-0.00165866
0.00197652
-0.00225932
0.00225196
-0.00292974
0.00253841
-0.00366472
-0.00441426
0.00281085
4.52325e-06
6.3434e-05
1.64006e-05
0.000184322
3.46795e-05
0.000299942
5.85382e-05
0.000405228
8.734e-05
0.000495861
0.000120729
0.000568559
0.000158709
0.000621175
0.000201682
0.000652535
0.000250435
0.000662073
0.000306087
0.000649358
0.000370005
0.000613621
0.000443716
0.000553363
0.000528845
0.000466081
0.000627091
0.0003481
0.000740264
0.00019448
0.000870371
-1.05725e-06
0.00101975
-0.000246222
0.00119115
-0.0005501
0.00138751
-0.000922779
0.00161169
-0.00137483
0.00186383
-0.0019108
0.00214216
-0.00253764
0.00243417
-0.00322175
0.00273016
-0.00396071
-0.00468474
0.00300063
4.35379e-06
5.90802e-05
1.60274e-05
0.000172649
3.43114e-05
0.000281658
5.85816e-05
0.000380958
8.83441e-05
0.000466099
0.000123329
0.000533574
0.000163574
0.00058093
0.000209477
0.000606632
0.000261802
0.000609748
0.000321643
0.000589517
0.000390365
0.000544899
0.000469536
0.000474191
0.000560895
0.000374722
0.000666345
0.000242649
0.000788022
7.28034e-05
0.000928388
-0.000141423
0.00109031
-0.00040814
0.00127702
-0.000736819
0.00149162
-0.00113737
0.00173633
-0.00161954
0.00200949
-0.00218397
0.00230586
-0.00283401
0.00260955
-0.00352543
0.0029081
-0.00425926
-0.0049464
0.00316977
4.11342e-06
5.49667e-05
1.54003e-05
0.000161362
3.34108e-05
0.000263648
5.77349e-05
0.000356634
8.80406e-05
0.000435793
0.000124165
0.00049745
0.000166201
0.000538894
0.000214565
0.000558268
0.000270019
0.000554295
0.000333658
0.000525878
0.000406876
0.000471681
0.000491331
0.000389736
0.000588932
0.000277121
0.000701871
0.00012971
0.000832695
-5.80197e-05
0.000984372
-0.0002931
0.00116028
-0.000584045
0.00136394
-0.000940482
0.0015981
-0.00137154
0.00186355
-0.00188499
0.00215598
-0.00247639
0.00246598
-0.00314401
0.00277491
-0.00383436
0.00306829
-0.00455264
-0.00519306
0.00331494
3.80931e-06
5.11574e-05
1.45444e-05
0.000150627
3.20271e-05
0.000246165
5.60747e-05
0.000332586
8.65339e-05
0.000405334
0.000123368
0.000460615
0.000166753
0.00049551
0.000217147
0.000507874
0.000275344
0.000496098
0.000342479
0.000458743
0.000420025
0.000394135
0.000509789
0.000299972
0.000613933
0.000172977
0.000735012
8.63099e-06
0.000876051
-0.000199059
0.00104052
-0.000457568
0.00123214
-0.000775664
0.00145431
-0.00116266
0.00170875
-0.00162597
0.00199386
-0.0021701
0.002302
-0.00278454
0.00261951
-0.00346152
0.00292622
-0.00414108
0.00320681
-0.00483323
-0.00541984
0.0034336
3.45048e-06
4.7707e-05
1.34918e-05
0.000140585
3.02266e-05
0.00022943
5.37092e-05
0.000309103
8.39792e-05
0.000375064
0.000121148
0.000423446
0.000165498
0.00045116
0.000217569
0.000455802
0.000278227
0.00043544
0.000348698
0.000388272
0.0004306
0.000312234
0.000525967
0.000204606
0.000637288
6.16559e-05
0.000767562
-0.000121643
0.000920278
-0.000351775
0.0010993
-0.000636586
0.00130835
-0.000984718
0.00155009
-0.0014044
0.00182436
-0.00190024
0.00212633
-0.00247206
0.00244476
-0.00310297
0.00276238
-0.00377915
0.00305921
-0.00443791
0.00332047
-0.00509449
-0.00562378
0.0035244
3.04801e-06
4.46589e-05
1.22826e-05
0.000131351
2.80929e-05
0.00021362
5.07779e-05
0.000286418
8.05832e-05
0.000345258
0.000117789
0.00038624
0.000162817
0.000406132
0.000216328
0.000402291
0.000279313
0.000372455
0.000353157
0.000314428
0.000439697
0.000225694
0.000541273
0.00010303
0.000660775
-5.78461e-05
0.000801649
-0.000262517
0.000967779
-0.000517906
0.00116313
-0.000831931
0.00139091
-0.0012125
0.00165224
-0.00166573
0.00194428
-0.00219228
0.00225843
-0.00278622
0.0025802
-0.00342473
0.00289009
-0.00408904
0.00317011
-0.00471793
0.00340729
-0.00533167
-0.00580389
0.0035874
2.61508e-06
4.20439e-05
1.09644e-05
0.000123001
2.57269e-05
0.000198858
4.74517e-05
0.000264694
7.66032e-05
0.000316107
0.000113654
0.000349189
0.000159198
0.000360588
0.000214069
0.000347421
0.000279443
0.000307081
0.000356937
0.000236934
0.000448687
0.000133944
0.000557409
-5.69227e-06
0.000686421
-0.000186858
0.000839556
-0.000415652
0.00102087
-0.000699215
0.00123396
-0.00104503
0.00148086
-0.0014594
0.00176034
-0.00194521
0.00206625
-0.00249818
0.00238627
-0.00310625
0.00270363
-0.00374209
0.00299843
-0.00438384
0.00325624
-0.00497574
0.00346683
-0.00554226
-0.00596107
0.00362401
2.1669e-06
3.9877e-05
9.59199e-06
0.000115576
2.32447e-05
0.000185205
4.39289e-05
0.000244009
7.23415e-05
0.000287694
0.000109172
0.000312359
0.000155229
0.000314531
0.000211567
0.000291082
0.000279621
0.000239028
0.000361312
0.000155242
0.000459145
3.61108e-05
0.000576249
-0.000122795
0.000716325
-0.000326934
0.00088342
-0.000582747
0.00108138
-0.000897174
0.00131287
-0.00127652
0.00157796
-0.00172449
0.00187241
-0.00223966
0.00218658
-0.00281235
0.00250515
-0.00342481
0.0028105
-0.00404744
0.00308421
-0.00465754
0.00331645
-0.00520799
0.0035001
-0.00572591
-0.00609768
0.00363671
1.72049e-06
3.81565e-05
8.226e-06
0.000109071
2.07749e-05
0.000172656
4.04308e-05
0.000224354
6.81374e-05
0.000259988
0.00010483
0.000275666
0.000151571
0.00026779
0.000209699
0.000232954
0.000280969
0.000167757
0.000367675
6.85356e-05
0.000472729
-6.89425e-05
0.000599648
-0.000249715
0.00075239
-0.000479676
0.000934906
-0.000765263
0.00115033
-0.00111259
0.0013997
-0.0015259
0.00168047
-0.00200526
0.00198506
-0.00254425
0.00230071
-0.003128
0.00261034
-0.00373444
0.00289718
-0.00433428
0.00314572
-0.00490609
0.00335117
-0.00541344
0.00350933
-0.00588406
-0.00621699
0.00362863
1.29419e-06
3.68623e-05
6.93108e-06
0.000103434
1.84548e-05
0.000161132
3.71932e-05
0.000205615
6.43532e-05
0.000232828
0.000101145
0.000238875
0.000148932
0.000220003
0.000209389
0.000172497
0.000284649
9.24967e-05
0.00037742
-2.42345e-05
0.000491011
-0.000182534
0.000629234
-0.000387938
0.000796053
-0.000646494
0.000994901
-0.000964112
0.0012276
-0.00134529
0.00149293
-0.00179123
0.0017853
-0.00229763
0.00209395
-0.0028529
0.0024039
-0.00343795
0.00269787
-0.00402841
0.0029614
-0.00459781
0.00318282
-0.0051275
0.00336217
-0.00559279
0.00349751
-0.0060194
-0.0063226
0.00360312
9.06822e-07
3.59555e-05
5.77315e-06
9.85675e-05
1.64235e-05
0.000150482
3.44555e-05
0.000187583
6.13567e-05
0.000205927
9.8643e-05
0.000201588
0.00014802
0.000170626
0.000211546
0.000108971
0.00029177
1.22723e-05
0.000391812
-0.000124276
0.000515311
-0.000306034
0.00066618
-0.000538806
0.00084804
-0.000828355
0.0010633
-0.00117937
0.00131186
-0.00159386
0.00158981
-0.00206917
0.00188844
-0.00259626
0.00219447
-0.00315893
0.00249199
-0.00373547
0.00276506
-0.00430148
0.00300251
-0.00483526
0.00319678
-0.00532177
0.00335212
-0.00574813
0.00346789
-0.00613517
-0.00641804
0.00356333
5.76769e-07
3.53787e-05
4.81595e-06
9.43284e-05
1.48154e-05
0.000140482
3.24481e-05
0.000169951
5.94999e-05
0.000178875
9.78213e-05
0.000163267
0.000149495
0.000118953
0.000216993
4.14736e-05
0.000303286
-7.40209e-05
0.000411856
-0.000232846
0.000546527
-0.000440705
0.00071103
-0.000703309
0.000908216
-0.00102554
0.00113893
-0.00141008
0.0014007
-0.00185563
0.0016867
-0.00235517
0.00198554
-0.0028951
0.00228245
-0.00345584
0.00256197
-0.00401499
0.00281074
-0.00455025
0.00302125
-0.00504577
0.00318989
-0.00549042
0.00332415
-0.00588239
0.0034236
-0.00623462
-0.00650636
0.00351192
3.20875e-07
3.50578e-05
4.11733e-06
9.05319e-05
1.37523e-05
0.000130848
3.13786e-05
0.000152324
5.9097e-05
0.000151156
9.91161e-05
0.000123248
0.000153918
6.41502e-05
0.000226396
-3.10038e-05
0.000319906
-0.000167531
0.000438185
-0.000351124
0.000585017
-0.000587537
0.0007636
-0.000881891
0.00097555
-0.00123749
0.00121968
-0.00165421
0.00149088
-0.00212683
0.00177959
-0.00264388
0.00207252
-0.00318803
0.00235466
-0.00373798
0.00261221
-0.00427254
0.00283518
-0.00477322
0.00301955
-0.00523014
0.00316515
-0.00563602
0.00328136
-0.0059986
0.00336737
-0.00632063
-0.00658967
0.00345067
1.53532e-07
3.49043e-05
3.72566e-06
8.69598e-05
1.33353e-05
0.000121238
3.14186e-05
0.000134241
6.04036e-05
0.000122171
0.000102872
8.07799e-05
0.00016171
5.31165e-06
0.000240207
-0.000109501
0.000342026
-0.000269351
0.000470985
-0.000480083
0.000630547
-0.000747099
0.000822978
-0.00107432
0.00104822
-0.00146273
0.00130274
-0.00190873
0.00157878
-0.00240287
0.00186462
-0.00292972
0.00214608
-0.00346949
0.00240911
-0.00400101
0.00264248
-0.00450591
0.0028398
-0.00497053
0.00300007
-0.00539041
0.0031259
-0.00576185
0.00322665
-0.00609935
0.00330104
-0.00639502
-0.00667041
0.00338178
8.48955e-08
3.48194e-05
3.67639e-06
8.33683e-05
1.36393e-05
0.000111275
3.26935e-05
0.000115187
6.36004e-05
9.12644e-05
0.000109317
3.50635e-05
0.000173118
-5.84898e-05
0.00025863
-0.000195012
0.000369693
-0.000380414
0.000509984
-0.000620374
0.000682313
-0.000919429
0.000887621
-0.00127963
0.00112383
-0.00169894
0.00138493
-0.00216984
0.00166086
-0.0026788
0.00193853
-0.00320738
0.00220397
-0.00373493
0.00244506
-0.0042421
0.00265367
-0.00471452
0.00282675
-0.00514361
0.00296579
-0.00552945
0.00307554
-0.0058716
0.00316334
-0.00618715
0.0032258
-0.00645748
-0.00675173
0.00330712
1.17857e-07
3.47015e-05
3.99e-06
7.94961e-05
1.47086e-05
0.000100556
3.52755e-05
9.46198e-05
6.87841e-05
5.77559e-05
0.000118554
-1.47062e-05
0.000188206
-0.000128142
0.00028161
-0.000288416
0.000402612
-0.000501415
0.00055448
-0.000772242
0.000739028
-0.00110398
0.000955522
-0.00149612
0.00119966
-0.00194308
0.00146309
-0.00243327
0.00173401
-0.00294973
0.00199892
-0.00347229
0.00224508
-0.00398109
0.00246292
-0.00445995
0.00264746
-0.00489906
0.00279855
-0.0052947
0.00291953
-0.00565044
0.00301658
-0.00596865
0.00309549
-0.00626607
0.00315818
-0.00652016
-0.00680803
0.00321448
2.54536e-07
3.4447e-05
4.67219e-06
7.50785e-05
1.6556e-05
8.86726e-05
3.91823e-05
7.19934e-05
7.59653e-05
2.09729e-05
0.000130557
-6.92982e-05
0.000206859
-0.000204444
0.000308853
-0.00039041
0.000440183
-0.000632746
0.000603421
-0.000935479
0.000799054
-0.00129961
0.00102441
-0.00172148
0.00127294
-0.00219161
0.00153433
-0.00269466
0.00179582
-0.00321122
0.00204441
-0.00372088
0.00226934
-0.00420602
0.00246391
-0.00465452
0.00262604
-0.00506118
0.00275782
-0.00542648
0.00286388
-0.0057565
0.00295077
-0.00605553
0.00302289
-0.00633819
0.00309
-0.00658728
-0.00686782
0.00314979
4.92968e-07
3.3954e-05
5.71436e-06
6.98571e-05
1.91643e-05
7.52226e-05
4.43806e-05
4.67771e-05
8.50756e-05
-1.97221e-05
0.000145187
-0.00012941
0.000228802
-0.000288059
0.00033986
-0.000501468
0.000481567
-0.000774453
0.000655502
-0.00110941
0.000860546
-0.00150465
0.00109196
-0.0019529
0.00134113
-0.00244077
0.00159634
-0.00294987
0.00184469
-0.00345957
0.00207453
-0.00395072
0.00227753
-0.00440902
0.0024498
-0.00482679
0.00259173
-0.0052031
0.00270701
-0.00554177
0.00280099
-0.00585047
0.00287992
-0.00613447
0.00294841
-0.00640668
0.00301353
-0.00665239
-0.00692848
0.00307419
8.25702e-07
3.31283e-05
7.09552e-06
6.35873e-05
2.24913e-05
5.98268e-05
5.07938e-05
1.84746e-05
9.59801e-05
-6.49083e-05
0.000162208
-0.000195638
0.000253637
-0.000379487
0.000373978
-0.00062181
0.000525752
-0.000926227
0.000709271
-0.00129293
0.000921605
-0.00171699
0.00115597
-0.00218727
0.00140205
-0.00268685
0.00164741
-0.00319524
0.00187984
-0.003692
0.0020896
-0.00416048
0.00227098
-0.00459039
0.00242262
-0.00497843
0.00254683
-0.00532732
0.00264833
-0.00564326
0.00273262
-0.00593476
0.00280553
-0.00620738
0.00287105
-0.0064722
0.00293564
-0.00671698
-0.00699145
0.00299861
1.24287e-06
3.18855e-05
8.78573e-06
5.60444e-05
2.64759e-05
4.21366e-05
5.83131e-05
-1.33625e-05
0.000108494
-0.00011509
0.000181318
-0.000268461
0.000280875
-0.000479044
0.000410453
-0.000751388
0.000571634
-0.00108741
0.000763226
-0.00148452
0.000980395
-0.00193416
0.00121449
-0.00242137
0.001454
-0.00292636
0.00168654
-0.00342777
0.00190121
-0.00390667
0.00209055
-0.00434982
0.00225137
-0.00475121
0.00238446
-0.00511152
0.00249348
-0.00543633
0.00258361
-0.0057334
0.0026602
-0.00601135
0.00272844
-0.00627562
0.00279179
-0.00653554
0.00285559
-0.00678078
-0.00705426
0.0029184
1.7335e-06
3.0152e-05
1.07499e-05
4.7028e-05
3.10455e-05
2.18411e-05
6.68089e-05
-4.9126e-05
0.000122403
-0.000170684
0.000202167
-0.000348226
0.000309974
-0.000586851
0.000448473
-0.000889887
0.00061807
-0.001257
0.0008159
-0.00168235
0.00103524
-0.0021535
0.00126593
-0.00265205
0.00149586
-0.00315629
0.00171334
-0.00364526
0.00190932
-0.00410265
0.0020787
-0.0045192
0.00222055
-0.00489307
0.00233732
-0.00522829
0.0024335
-0.00553251
0.00251435
-0.00581425
0.00258482
-0.00608182
0.00264938
-0.00634018
0.00271089
-0.00659706
0.00277379
-0.00684368
-0.007117
0.00283653
2.28662e-06
2.78653e-05
1.29516e-05
3.6363e-05
3.61226e-05
-1.32989e-06
7.61425e-05
-8.91459e-05
0.000137473
-0.000232015
0.000224386
-0.000435138
0.000340365
-0.00070283
0.000487205
-0.00103673
0.000663934
-0.00143373
0.000865921
-0.00188434
0.00108472
-0.0023723
0.00130908
-0.00287641
0.00152697
-0.00337418
0.00172797
-0.00384626
0.00190511
-0.00427978
0.00205558
-0.00466967
0.00218034
-0.00501783
0.002283
-0.00533096
0.00236845
-0.00561796
0.00244175
-0.00588755
0.00250727
-0.00614734
0.0025688
-0.00640171
0.00262867
-0.00665692
0.00269051
-0.00690552
-0.00717912
0.00275263
2.89224e-06
2.49731e-05
1.53559e-05
2.38993e-05
4.16312e-05
-2.76052e-05
8.61745e-05
-0.000133689
0.000153471
-0.000299311
0.000247597
-0.000529264
0.000371471
-0.000826704
0.000525829
-0.00119108
0.000708155
-0.00161606
0.000912065
-0.00208825
0.00112768
-0.00258791
0.00134318
-0.00309192
0.00154721
-0.00357821
0.00173101
-0.00403006
0.00188979
-0.00443856
0.00202278
-0.00480266
0.00213242
-0.00512747
0.00222305
-0.00542158
0.00229959
-0.0056945
0.00236669
-0.00595465
0.00242814
-0.00620879
0.00248706
-0.00646062
0.00254531
-0.00671518
0.00260589
-0.0069661
-0.00724035
0.00266711
3.54197e-06
2.14311e-05
1.79314e-05
9.50988e-06
4.75003e-05
-5.71741e-05
9.67705e-05
-0.000182959
0.000170165
-0.000372705
0.000271426
-0.000630526
0.000402724
-0.000958002
0.000563547
-0.00135191
0.000749744
-0.00180226
0.000953294
-0.0022918
0.00116326
-0.00279788
0.00136784
-0.0032965
0.00155681
-0.00376717
0.00172333
-0.00419659
0.0018647
-0.00457993
0.00198187
-0.00491983
0.00207834
-0.00522394
0.00215877
-0.00550202
0.00222791
-0.00576363
0.00228986
-0.0060166
0.00234784
-0.00626676
0.00240438
-0.00651716
0.00246096
-0.00677177
0.00252006
-0.00702519
-0.00730033
0.00258004
4.22937e-06
1.72018e-05
2.06515e-05
-6.91226e-06
5.36653e-05
-9.01878e-05
0.000107804
-0.000237098
0.000187329
-0.00045223
0.000295505
-0.000738701
0.000433569
-0.00109607
0.000599608
-0.00151795
0.000787821
-0.00199047
0.000988776
-0.00249276
0.00119094
-0.00300004
0.00138303
-0.00348859
0.00155633
-0.00394047
0.00170601
-0.00434626
0.00183122
-0.00470514
0.0019343
-0.00502291
0.0020194
-0.00530903
0.00209123
-0.00557385
0.00215416
-0.00582656
0.00221175
-0.0060742
0.00226665
-0.00632167
0.00232091
-0.00657142
0.00237572
-0.00682657
0.00243309
-0.00708257
-0.00735877
0.00249153
4.94981e-06
1.22519e-05
2.3494e-05
-2.54564e-05
6.00683e-05
-0.000126762
0.000119154
-0.000296184
0.000204745
-0.000537821
0.000319471
-0.000853427
0.000463468
-0.00124006
0.000633315
-0.00168779
0.000821636
-0.00217879
0.0010179
-0.00268902
0.00121046
-0.0031926
0.001389
-0.00366714
0.00154655
-0.00409802
0.00168018
-0.0044799
0.00179068
-0.00481564
0.00188135
-0.00511358
0.0019567
-0.00538438
0.00202125
-0.0056384
0.00207892
-0.00588423
0.0021327
-0.00612799
0.00218477
-0.00637373
0.00223677
-0.00662342
0.00228963
-0.00687944
0.00234506
-0.00713799
-0.00741536
0.00240165
5.70024e-06
6.55171e-06
2.64401e-05
-4.61962e-05
6.66561e-05
-0.000166978
0.000130706
-0.000360234
0.000222197
-0.000629312
0.000342969
-0.000974199
0.000491909
-0.001389
0.000664045
-0.00185993
0.000850586
-0.00236533
0.00104029
-0.00287873
0.00122185
-0.00337415
0.00138626
-0.00383155
0.00152837
-0.00424012
0.00164702
-0.00459855
0.0017443
-0.00491291
0.00182415
-0.00519344
0.00189114
-0.00545137
0.00194949
-0.00569676
0.0020026
-0.00593733
0.00205296
-0.00617835
0.00210232
-0.00642309
0.002152
-0.0066731
0.00220276
-0.00693019
0.00225601
-0.00719124
-0.00746984
0.00231049
6.47845e-06
7.32558e-08
2.94732e-05
-6.91909e-05
7.33778e-05
-0.000210883
0.000142345
-0.000429201
0.00023947
-0.000726437
0.000365651
-0.00110038
0.000518411
-0.00154176
0.000691256
-0.00203278
0.000874224
-0.0025483
0.00105577
-0.00306028
0.00122534
-0.00354371
0.00137546
-0.00398168
0.00150277
-0.00436743
0.00160766
-0.00470344
0.00169317
-0.00499842
0.00176363
-0.00526389
0.00182345
-0.0055112
0.00187645
-0.00574975
0.00192551
-0.00598639
0.0019727
-0.00622553
0.00201939
-0.00646979
0.00206667
-0.00672037
0.00211514
-0.00697867
0.00216599
-0.00724209
-0.00752196
0.00221811
7.28134e-06
-7.20808e-06
3.2577e-05
-9.44866e-05
8.01817e-05
-0.000258488
0.000153953
-0.000502972
0.000256345
-0.00082883
0.000387177
-0.00123121
0.000542536
-0.00169712
0.000714507
-0.00220475
0.000892263
-0.00272606
0.00106437
-0.00323238
0.00122134
-0.00370068
0.00135736
-0.00411771
0.00147074
-0.00448081
0.00156313
-0.00479583
0.00163826
-0.00507355
0.00170056
-0.00532619
0.00175419
-0.00556482
0.00180248
-0.00579805
0.00184787
-0.00603178
0.00189202
-0.00626968
0.00193604
-0.00651382
0.0019808
-0.00676513
0.00202681
-0.00702467
0.00207506
-0.00729034
-0.00757148
0.00212458
8.1091e-06
-1.53172e-05
3.57344e-05
-0.000122112
8.70133e-05
-0.000309766
0.000165409
-0.000581368
0.000272605
-0.000936025
0.000407221
-0.00136583
0.000563896
-0.0018538
0.000733462
-0.00237431
0.00090457
-0.00289716
0.00106627
-0.00339408
0.00121039
-0.0038448
0.00133278
-0.0042401
0.00143322
-0.00458126
0.00151438
-0.00487698
0.00158038
-0.00513955
0.00163558
-0.0053814
0.00168378
-0.00561302
0.00172786
-0.00584213
0.00176983
-0.00607375
0.00181101
-0.00631087
0.00185231
-0.00655512
0.00189442
-0.00680725
0.00193779
-0.00706804
0.00198326
-0.00733581
-0.00761819
0.00202997
8.9577e-06
-2.42749e-05
3.89258e-05
-0.00015208
9.38138e-05
-0.000364654
0.000176586
-0.00066414
0.00028803
-0.00104747
0.00042548
-0.00150328
0.000582166
-0.00201048
0.000747896
-0.00254004
0.000911156
-0.00306042
0.0010618
-0.00354473
0.00119311
-0.00397611
0.00130252
-0.00434952
0.0013911
-0.00466983
0.00146222
-0.0049481
0.00152019
-0.00519753
0.00156918
-0.00543039
0.00161257
-0.0056564
0.00165279
-0.00588235
0.00169149
-0.00611245
0.00172972
-0.0063491
0.00176822
-0.00659362
0.00180757
-0.00684659
0.00184814
-0.00710861
0.00189064
-0.00737831
-0.00766191
0.00193435
9.8233e-06
-3.40982e-05
4.21283e-05
-0.000184385
0.000100519
-0.000423045
0.000187353
-0.000750975
0.000302408
-0.00116252
0.000441679
-0.00164255
0.000597091
-0.0021659
0.000757697
-0.00270065
0.000912159
-0.00321489
0.00105138
-0.00368395
0.00117016
-0.00409489
0.0012674
-0.00444675
0.00134517
-0.0047476
0.00140735
-0.00501029
0.00145827
-0.00524844
0.00150177
-0.00547388
0.0015408
-0.00569544
0.00157741
-0.00591896
0.00161293
-0.00614796
0.0016482
-0.00638438
0.00168382
-0.00662924
0.00172027
-0.00688305
0.00175788
-0.00714621
0.00179725
-0.00741769
-0.00770244
0.00183779
1.0701e-05
-4.47992e-05
4.53163e-05
-0.000219
0.00010706
-0.000484789
0.000197576
-0.000841491
0.000315534
-0.00128048
0.000455584
-0.0017826
0.000608493
-0.0023188
0.000762856
-0.00285501
0.00090782
-0.00335985
0.00103552
-0.00381165
0.00114223
-0.0042016
0.00122814
-0.00453266
0.00129615
-0.00481561
0.00135039
-0.00506453
0.00139505
-0.00529311
0.00143363
-0.00551246
0.00146866
-0.00573047
0.00150183
-0.00595213
0.00153421
-0.00618034
0.00156648
-0.00641664
0.00159912
-0.00666188
0.00163255
-0.00691648
0.00166705
-0.00718072
0.00170316
-0.00745379
-0.00773964
0.00174035
1.15848e-05
-5.6384e-05
4.84607e-05
-0.000255876
0.000113364
-0.000549692
0.000207122
-0.000935249
0.000327221
-0.00140058
0.000467003
-0.00192238
0.00061627
-0.00246807
0.000763458
-0.0030022
0.000898458
-0.00349485
0.00101473
-0.00392792
0.00110997
-0.00429684
0.00118545
-0.00460814
0.00124465
-0.00487481
0.00129182
-0.0051117
0.00133091
-0.00533219
0.00136501
-0.00554656
0.00139629
-0.00576175
0.00142613
-0.00598197
0.00145537
-0.00620958
0.00148458
-0.00644585
0.00151415
-0.00669145
0.00154445
-0.00694677
0.00157571
-0.00721198
0.0016084
-0.00748648
-0.00777334
0.00164211
1.24675e-05
-6.88515e-05
5.15302e-05
-0.000294939
0.000119358
-0.00061752