/*--------------------------------*- C++ -*----------------------------------*\
  =========                 |
  \\      /  F ield         | OpenFOAM: The Open Source CFD Toolbox
   \\    /   O peration     | Website:  https://openfoam.org
    \\  /    A nd           | Version:  7
     \\/     M anipulation  |
\*---------------------------------------------------------------------------*/
FoamFile
{
    version     2.0;
    format      ascii;
    class       volVectorField;
    location    "125";
    object      U;
}
// * * * * * * * * * * * * * * * * * * * * * * * * * * * * * * * * * * * * * //

dimensions      [0 1 -1 0 0 0 0];

internalField   nonuniform List<vector> 
31800
(
(-0.000836833 0.0485787 -1.42542e-20)
(-0.00344352 0.122331 9.79736e-21)
(-0.00840664 0.177662 -3.17722e-21)
(-0.0154609 0.216722 1.41243e-20)
(-0.0244465 0.242124 1.57558e-20)
(-0.0350388 0.256768 -5.15936e-21)
(-0.0468125 0.26351 -3.7257e-21)
(-0.0593333 0.264859 2.6537e-20)
(-0.0722001 0.262755 -3.00933e-21)
(-0.0850665 0.258456 4.41953e-21)
(-0.097641 0.252543 1.53105e-20)
(-0.109673 0.245016 1.51979e-20)
(-0.120932 0.235444 -9.71331e-21)
(-0.131186 0.223104 -1.23484e-20)
(-0.140186 0.207107 -4.8524e-22)
(-0.14766 0.186483 -1.62788e-20)
(-0.153304 0.160259 1.29297e-20)
(-0.156802 0.127523 2.21217e-20)
(-0.157829 0.0875082 -8.56163e-21)
(-0.156074 0.0396933 3.88822e-20)
(-0.151253 -0.0160827 2.45918e-21)
(-0.143107 -0.0794767 -3.15199e-21)
(-0.131384 -0.14947 6.71692e-21)
(-0.116249 -0.224067 1.37764e-20)
(-0.0968098 -0.30077 8.52891e-21)
(-0.00196306 0.0489607 1.46903e-20)
(-0.00581086 0.12381 8.25019e-21)
(-0.0109326 0.180427 -8.69603e-21)
(-0.0174801 0.220786 -3.28213e-20)
(-0.0254969 0.247356 2.44639e-20)
(-0.0348124 0.262939 -1.19807e-20)
(-0.0451124 0.270349 6.92366e-22)
(-0.056026 0.272094 -2.03657e-20)
(-0.0671756 0.270141 4.33751e-21)
(-0.0782093 0.265786 2.92625e-21)
(-0.0888113 0.259645 -6.51484e-20)
(-0.0986978 0.251746 -1.06545e-21)
(-0.107605 0.241671 7.50501e-20)
(-0.115273 0.2287 -3.85421e-20)
(-0.121438 0.211936 -7.42685e-21)
(-0.125821 0.190403 1.61983e-20)
(-0.128138 0.163118 -3.5221e-20)
(-0.128106 0.129168 -1.16517e-21)
(-0.12546 0.0877933 3.67404e-20)
(-0.119971 0.0384846 -1.35108e-19)
(-0.11145 -0.0189103 -4.30323e-20)
(-0.0997379 -0.0840299 6.52911e-20)
(-0.0846235 -0.155868 3.28667e-20)
(-0.0665649 -0.232273 5.67845e-21)
(-0.0436451 -0.310718 -1.21466e-20)
(-0.00309136 0.0490184 -3.11714e-20)
(-0.00820313 0.12455 -6.63578e-22)
(-0.0134969 0.182223 -4.21273e-20)
(-0.0195261 0.22378 6.23169e-20)
(-0.0265282 0.251501 -7.0308e-20)
(-0.0344834 0.268058 -6.92697e-21)
(-0.0431898 0.276189 -6.44929e-21)
(-0.0523425 0.27838 1.20461e-20)
(-0.0615915 0.276612 3.9497e-20)
(-0.0705813 0.272214 -6.66035e-21)
(-0.0789741 0.265842 -1.27385e-20)
(-0.0864545 0.257556 4.4353e-20)
(-0.0927266 0.246961 -7.34589e-21)
(-0.0975056 0.233349 4.38675e-20)
(-0.100513 0.215827 -9.25389e-20)
(-0.101474 0.19342 -3.9187e-20)
(-0.100123 0.165148 6.10775e-21)
(-0.0962205 0.130107 -1.33608e-19)
(-0.0895645 0.0875495 3.75628e-20)
(-0.0800116 0.0369851 8.38054e-20)
(-0.0674638 -0.0217387 -5.64366e-20)
(-0.0518697 -0.0882524 -1.32762e-19)
(-0.0330029 -0.161607 -6.53566e-20)
(-0.0117807 -0.239542 -1.23273e-19)
(0.0150989 -0.319555 -6.55503e-20)
(-0.00420078 0.0487523 1.43771e-20)
(-0.0105794 0.124542 -2.41139e-20)
(-0.0160586 0.183019 7.64469e-20)
(-0.0215687 0.225653 -6.09872e-20)
(-0.0275259 0.254494 -1.6265e-20)
(-0.0340557 0.272045 -4.61233e-21)
(-0.0410675 0.280942 5.03132e-20)
(-0.0483255 0.283626 3.64091e-20)
(-0.0555109 0.282077 -6.3649e-20)
(-0.0622697 0.277653 2.72195e-20)
(-0.0682451 0.271049 9.76376e-22)
(-0.0730934 0.262366 -1.253e-19)
(-0.0764896 0.25124 -4.10621e-20)
(-0.0781263 0.236983 3.59245e-21)
(-0.0777163 0.218723 2.86014e-20)
(-0.0749909 0.195489 1.36663e-19)
(-0.0697103 0.166319 1.65034e-20)
(-0.0616809 0.130326 1.35288e-19)
(-0.0507621 0.0867789 1.42666e-19)
(-0.0368968 0.0352102 -1.82793e-20)
(-0.0200664 -0.0245418 6.38053e-20)
(-0.000333888 -0.0921072 -2.78299e-20)
(0.0226112 -0.166623 8.44183e-20)
(0.047219 -0.245822 2.76788e-19)
(0.0785663 -0.327082 4.01788e-20)
(-0.00527062 0.0481693 2.50932e-20)
(-0.0128994 0.123787 -9.1028e-20)
(-0.0185772 0.182803 1.17055e-19)
(-0.0235778 0.22637 4.29953e-20)
(-0.0284782 0.256279 3.32972e-20)
(-0.0335376 0.274832 3.5524e-20)
(-0.0387753 0.28453 -1.90934e-19)
(-0.0440272 0.287749 7.19361e-20)
(-0.0490099 0.286454 7.51666e-20)
(-0.0533767 0.282023 -1.1187e-19)
(-0.0567573 0.275192 1.1738e-19)
(-0.0587843 0.266107 6.49154e-20)
(-0.059108 0.254444 8.29878e-20)
(-0.0574013 0.239549 -5.85478e-20)
(-0.0533741 0.220577 -1.38386e-20)
(-0.0467677 0.196575 2.9488e-19)
(-0.0373695 0.166607 -1.28689e-19)
(-0.0250346 0.129811 1.04989e-19)
(-0.00967908 0.0854799 -2.56201e-19)
(0.00867546 0.0331472 -1.08221e-19)
(0.0299855 -0.0273349 1.02538e-19)
(0.0540713 -0.0956161 1.82878e-19)
(0.0814078 -0.170939 3.28845e-20)
(0.109603 -0.251053 -2.35021e-19)
(0.146125 -0.333227 -1.63531e-19)
(-0.0062818 0.0472829 -1.00128e-19)
(-0.0151242 0.122301 -3.26571e-20)
(-0.0210146 0.181576 -6.93829e-20)
(-0.0255268 0.225911 -6.70371e-20)
(-0.0293751 0.256814 4.81406e-20)
(-0.0329412 0.276358 -8.6654e-20)
(-0.0363493 0.286883 -5.70014e-20)
(-0.0395078 0.290674 -2.81042e-19)
(-0.0421748 0.289666 1.25153e-20)
(-0.0440171 0.285251 -3.35666e-21)
(-0.0446577 0.278203 -2.24027e-19)
(-0.0437118 0.26872 -7.91901e-20)
(-0.0408109 0.256524 -9.80339e-20)
(-0.0356113 0.241007 1.94403e-19)
(-0.0278244 0.221352 5.79548e-20)
(-0.0172076 0.196648 -1.593e-19)
(-0.00357278 0.165989 -1.87594e-19)
(0.0131769 0.128541 5.59346e-20)
(0.0330662 0.0836234 2.17033e-19)
(0.0560201 0.0307693 -4.90554e-20)
(0.0819674 -0.0301647 -2.98569e-20)
(0.110577 -0.0988541 -1.39884e-19)
(0.142664 -0.174655 -1.78656e-19)
(0.174582 -0.255315 1.43113e-19)
(0.217065 -0.338021 9.25487e-20)
(-0.00721726 0.0461119 5.14338e-20)
(-0.0172182 0.120113 6.01674e-20)
(-0.0233347 0.179354 -4.77705e-20)
(-0.0273903 0.224273 -9.84908e-20)
(-0.0302101 0.256074 1.52764e-20)
(-0.0322825 0.276578 1.15238e-19)
(-0.0338301 0.287941 1.65981e-19)
(-0.0348345 0.292334 2.28891e-19)
(-0.0351002 0.291646 4.03382e-20)
(-0.0343149 0.287273 5.26596e-20)
(-0.0321031 0.280026 6.5161e-20)
(-0.0280696 0.270154 2.58041e-19)
(-0.0218328 0.257437 -1.53152e-20)
(-0.0130439 0.241319 -3.48618e-19)
(-0.00141168 0.221021 2.57498e-19)
(0.0132894 0.195688 1.06166e-19)
(0.0312149 0.164442 3.43951e-19)
(0.052424 0.126486 -1.42569e-19)
(0.0768946 0.0811634 -1.73591e-19)
(0.104506 0.0280225 5.04836e-19)
(0.135208 -0.0331163 -1.75101e-19)
(0.168479 -0.101946 -2.68381e-19)
(0.205702 -0.177897 -7.35222e-20)
(0.241461 -0.258848 -2.24355e-19)
(0.2907 -0.341568 3.48912e-20)
(-0.00806232 0.0446808 1.2932e-20)
(-0.0191498 0.117262 -2.58389e-20)
(-0.025505 0.176173 5.22333e-21)
(-0.0291458 0.221471 -1.81253e-19)
(-0.0309786 0.25405 -1.39936e-19)
(-0.0315799 0.275461 -2.63733e-20)
(-0.031262 0.287655 -6.89092e-20)
(-0.0300789 0.292671 -1.24939e-19)
(-0.0278861 0.292334 -2.80695e-20)
(-0.0244003 0.288031 -1.48004e-20)
(-0.0192561 0.280607 -1.39127e-19)
(-0.0120568 0.270365 6.09577e-20)
(-0.00241492 0.257147 4.65804e-20)
(0.0100191 0.240453 2.56839e-19)
(0.0255323 0.219566 -3.69507e-21)
(0.0443349 0.193673 -1.63707e-19)
(0.0665527 0.161944 -1.88133e-20)
(0.0922135 0.123617 7.59035e-20)
(0.121268 0.0780578 3.20239e-19)
(0.153561 0.024824 -2.42026e-19)
(0.189118 -0.0363056 6.57381e-19)
(0.227175 -0.105066 2.7827e-19)
(0.269936 -0.180849 -2.11306e-19)
(0.309655 -0.261905 4.008e-19)
(0.36638 -0.344046 2.21899e-19)
(-0.00880522 0.0430185 1.66151e-20)
(-0.0208927 0.113803 8.08219e-20)
(-0.0274979 0.172082 2.28362e-19)
(-0.0307743 0.217538 2.82542e-19)
(-0.031678 0.25075 1.67959e-19)
(-0.0308533 0.272992 -1.18135e-19)
(-0.0286907 0.285992 2.88205e-19)
(-0.0253146 0.291638 3.33567e-20)
(-0.0206353 0.291676 -1.74225e-19)
(-0.0144061 0.287475 1.93687e-20)
(-0.00628136 0.279903 3.33177e-19)
(0.00412791 0.269317 -3.63849e-19)
(0.017207 0.255625 -2.12199e-19)
(0.0333016 0.238392 -4.32967e-20)
(0.0526902 0.216965 -3.65056e-19)
(0.0755676 0.190584 -2.47031e-19)
(0.102037 0.158469 4.52091e-20)
(0.132105 0.119894 -5.43462e-19)
(0.165718 0.0742443 5.78637e-20)
(0.202701 0.0210753 -2.77254e-19)
(0.24322 -0.039869 -3.49369e-19)
(0.286198 -0.108412 3.30871e-19)
(0.334909 -0.183722 3.70985e-19)
(0.378732 -0.264737 -2.87091e-19)
(0.443518 -0.345661 3.80851e-19)
(-0.0094375 0.0411584 -1.94116e-19)
(-0.0224261 0.109798 1.41298e-19)
(-0.029291 0.167147 -9.91545e-21)
(-0.0322604 0.212524 5.62277e-20)
(-0.032308 0.246201 5.3161e-20)
(-0.0301233 0.269171 2.37068e-19)
(-0.0261622 0.28293 -1.7228e-19)
(-0.020615 0.2892 -3.23851e-19)
(-0.01345 0.289631 1.63462e-19)
(-0.00446414 0.285559 1.54608e-19)
(0.00665907 0.277872 -5.29776e-19)
(0.0202914 0.266976 3.79925e-19)
(0.0368076 0.252845 5.9113e-19)
(0.0565442 0.235115 4.25439e-20)
(0.0797689 0.213201 -1.10761e-19)
(0.106663 0.186403 3.24478e-19)
(0.137317 0.153991 -1.53168e-19)
(0.17173 0.115273 7.13343e-19)
(0.209871 0.0696473 -6.47916e-19)
(0.251564 0.0166634 1.22312e-19)
(0.297186 -0.0439555 -6.37266e-20)
(0.34526 -0.112193 -2.11462e-19)
(0.400334 -0.186734 -2.05451e-19)
(0.44844 -0.267566 1.66827e-19)
(0.521599 -0.346589 3.99284e-20)
(-0.00995432 0.039137 1.27321e-19)
(-0.0237361 0.105322 -9.05514e-20)
(-0.030868 0.16145 7.50814e-20)
(-0.0335929 0.206499 -2.50066e-19)
(-0.0328696 0.24045 -5.50248e-20)
(-0.0294099 0.264019 2.81821e-20)
(-0.02372 0.278465 -6.35767e-20)
(-0.0160505 0.285333 -1.05838e-19)
(-0.0064285 0.286163 3.36352e-20)
(0.00529898 0.282246 -1.80923e-19)
(0.0194105 0.274479 3.42858e-19)
(0.0362513 0.263312 -7.93853e-20)
(0.0561777 0.248784 -2.08484e-19)
(0.0795122 0.230604 -2.18898e-19)
(0.106511 0.20826 3.01053e-19)
(0.137347 0.181111 1.68821e-19)
(0.17211 0.148477 6.93067e-20)
(0.21081 0.109701 -5.95236e-19)
(0.253475 0.0641896 6.39808e-19)
(0.299947 0.0114684 -2.12314e-19)
(0.35087 -0.0487167 -1.01563e-19)
(0.404297 -0.116604 -8.05615e-20)
(0.466111 -0.190075 -8.78612e-20)
(0.518714 -0.270545 2.83437e-19)
(0.60017 -0.346913 -4.46063e-19)
(-0.0103546 0.0369928 -4.72713e-20)
(-0.0248158 0.100453 2.0308e-19)
(-0.0322199 0.155083 -2.88339e-19)
(-0.0347654 0.199549 1.15264e-19)
(-0.0333658 0.233561 6.35841e-20)
(-0.0287317 0.257574 -9.60274e-20)
(-0.0214038 0.272609 2.80902e-19)
(-0.0116851 0.280028 6.86356e-20)
(0.000339022 0.28125 3.22399e-20)
(0.0147669 0.277507 2.82784e-19)
(0.0318314 0.269693 -1.1652e-19)
(0.0518429 0.258297 1.28483e-19)
(0.0751324 0.243419 -1.37051e-19)
(0.102005 0.224842 -8.29333e-21)
(0.132707 0.202123 -1.57651e-19)
(0.167411 0.174684 -5.65909e-19)
(0.206224 0.141894 1.19883e-19)
(0.249192 0.103122 4.81328e-19)
(0.296435 0.0577881 -1.72577e-19)
(0.347835 0.00537101 8.47513e-19)
(0.404348 -0.0542933 -4.77759e-19)
(0.46348 -0.121793 -1.38549e-19)
(0.532331 -0.193874 -2.30742e-19)
(0.589629 -0.273715 4.91984e-21)
(0.67879 -0.346589 -2.02748e-19)
(-0.0106412 0.0347657 -1.42256e-19)
(-0.025666 0.0952792 -2.09044e-19)
(-0.0333447 0.14815 -1.1136e-19)
(-0.0357762 0.191772 1.05039e-19)
(-0.0338004 0.225618 3.27219e-20)
(-0.0281044 0.249894 1.87022e-20)
(-0.0192465 0.265395 7.22249e-20)
(-0.00757301 0.273295 -3.53116e-19)
(0.00677515 0.274882 1.17622e-19)
(0.023839 0.271321 -2.46153e-19)
(0.0438001 0.263491 -9.08493e-20)
(0.0669272 0.251909 -1.24269e-19)
(0.093521 0.236732 -2.70489e-19)
(0.123868 0.217811 5.68888e-19)
(0.15821 0.194772 3.33005e-19)
(0.196733 0.1671 9.03922e-20)
(0.239581 0.134207 2.92985e-19)
(0.286868 0.0954853 -4.43741e-19)
(0.338847 0.0503628 -1.16518e-19)
(0.395448 -0.00173146 -5.49235e-19)
(0.457933 -0.0607941 2.1494e-19)
(0.523208 -0.127835 4.7767e-19)
(0.599227 -0.198165 2.20581e-19)
(0.661302 -0.276974 -4.03788e-19)
(0.756937 -0.345432 4.84751e-19)
(-0.0108205 0.0324958 -5.06887e-20)
(-0.0262952 0.0898886 1.3153e-20)
(-0.0342479 0.140762 1.42013e-19)
(-0.0366283 0.183283 2.5208e-19)
(-0.0341779 0.216719 -1.68239e-19)
(-0.0275394 0.241056 1.6188e-19)
(-0.0172721 0.256872 -1.27112e-19)
(-0.00375479 0.265158 4.83344e-19)
(0.0128206 0.267066 -3.41384e-19)
(0.0324378 0.263681 7.34276e-20)
(0.0552238 0.255856 3.24552e-19)
(0.0814019 0.244128 -4.4943e-20)
(0.111241 0.228702 3.78661e-20)
(0.145011 0.209493 -4.6071e-19)
(0.182959 0.18619 -4.01733e-19)
(0.225302 0.158336 -1.47551e-20)
(0.272253 0.125382 -4.65453e-19)
(0.324024 0.0867414 1.81225e-19)
(0.381026 0.0418542 -2.51167e-19)
(0.443249 -0.0099038 3.44803e-19)
(0.512172 -0.0682678 -4.63247e-19)
(0.584044 -0.134692 2.78347e-19)
(0.667082 -0.202842 -2.31789e-19)
(0.73375 -0.280056 3.16571e-19)
(0.833901 -0.343138 -1.85078e-20)
(-0.0109029 0.0302226 2.77911e-19)
(-0.0267188 0.0843716 7.01227e-20)
(-0.0349421 0.133036 -1.56723e-19)
(-0.0373293 0.174206 -1.87304e-19)
(-0.0345028 0.206981 1.26205e-19)
(-0.0270425 0.231157 -4.61887e-19)
(-0.0154924 0.247114 6.58993e-19)
(-0.000252652 0.255665 1.2827e-19)
(0.018441 0.257826 2.1372e-19)
(0.0405175 0.254593 2.64092e-19)
(0.0660497 0.246786 1.69443e-19)
(0.0952154 0.234947 -1.2942e-19)
(0.128254 0.21932 -3.89314e-21)
(0.165427 0.199876 -6.35968e-20)
(0.207004 0.176363 -2.01127e-19)
(0.253255 0.148373 4.65764e-19)
(0.304495 0.115396 9.85742e-19)
(0.361062 0.0768605 6.39584e-20)
(0.423538 0.0322362 3.58447e-19)
(0.491939 -0.0191461 -1.88733e-19)
(0.567787 -0.0766674 2.40925e-19)
(0.646593 -0.142183 -1.39217e-18)
(0.736083 -0.207647 6.56661e-19)
(0.806721 -0.282538 3.94833e-19)
(0.908724 -0.339337 -2.60479e-19)
(-0.0109017 0.0279836 -1.6596e-19)
(-0.0269594 0.0788167 -2.82666e-19)
(-0.0354467 0.125089 2.70145e-19)
(-0.0378903 0.164669 1.7606e-19)
(-0.0347779 0.196531 9.39655e-20)
(-0.026611 0.220309 3.3351e-19)
(-0.0139038 0.236211 -3.46737e-19)
(0.00293494 0.244884 -3.20617e-19)
(0.0236342 0.247207 -2.11187e-19)
(0.0480745 0.244086 -5.01613e-19)
(0.0762789 0.236293 9.80251e-20)
(0.108385 0.224369 -4.02716e-20)
(0.14461 0.208586 7.5027e-19)
(0.185224 0.18896 3.15108e-19)
(0.230537 0.165289 2.34308e-19)
(0.280906 0.137211 -7.52186e-20)
(0.336774 0.104252 -4.43534e-19)
(0.398625 0.0658521 -3.72187e-19)
(0.467182 0.0215437 -4.50712e-19)
(0.542398 -0.0293625 3.27673e-19)
(0.625564 -0.0858155 6.26427e-19)
(0.711329 -0.149966 7.10321e-19)
(0.806146 -0.212165 -6.60714e-19)
(0.879558 -0.283891 2.68203e-19)
(0.980196 -0.333666 3.532e-19)
(-0.0108332 0.0258139 -4.36053e-19)
(-0.0270451 0.0733088 2.41529e-19)
(-0.0357861 0.11704 -4.08344e-19)
(-0.0383245 0.154809 4.99843e-19)
(-0.0350024 0.185506 -4.76146e-19)
(-0.0262315 0.208641 -1.42164e-19)
(-0.0124825 0.224276 -2.64738e-19)
(0.00583951 0.232906 1.49604e-19)
(0.0284397 0.23528 -2.56833e-19)
(0.05516 0.23221 2.84632e-19)
(0.085983 0.224415 -3.76102e-19)
(0.121018 0.212422 -2.83651e-19)
(0.160475 0.196521 5.23328e-21)
(0.204654 0.176763 -4.57117e-19)
(0.253933 0.15299 7.77433e-21)
(0.308784 0.124878 -4.87215e-19)
(0.369798 0.0919883 -2.79003e-20)
(0.437591 0.0537881 -5.59378e-19)
(0.512938 0.00990106 1.98467e-19)
(0.59557 -0.0403314 8.89638e-19)
(0.686172 -0.095381 -8.67964e-19)
(0.778386 -0.157548 4.26715e-19)
(0.876772 -0.215868 4.61071e-19)
(0.951142 -0.283561 -2.23751e-19)
(1.04695 -0.325859 7.56261e-20)
(-0.0107161 0.0237453 2.26033e-19)
(-0.0270086 0.067927 -6.37016e-20)
(-0.0359882 0.109 1.38518e-19)
(-0.0386448 0.144759 -4.01724e-19)
(-0.0351698 0.17405 6.4084e-19)
(-0.0258763 0.196297 4.17506e-20)
(-0.0111804 0.211441 4.62018e-19)
(0.00852967 0.219847 -2.40633e-19)
(0.0329487 0.222143 1.64402e-19)
(0.0618939 0.219046 2.16632e-19)
(0.0953234 0.211217 2.03635e-19)
(0.133335 0.199163 6.48929e-19)
(0.176157 0.183178 -1.7027e-19)
(0.224142 0.16334 -1.70017e-19)
(0.27777 0.139528 -1.40382e-19)
(0.337646 0.111452 -1.02645e-20)
(0.4045 0.078715 -3.08222e-19)
(0.479019 0.0408304 2.79091e-19)
(0.561857 -0.00245013 -3.83851e-19)
(0.652278 -0.0516887 1.50331e-19)
(0.749949 -0.104882 -2.21279e-19)
(0.847388 -0.164329 2.32516e-20)
(0.946963 -0.218191 -1.06617e-18)
(1.01996 -0.281068 1.03005e-19)
(1.10765 -0.315803 5.45181e-21)
(-0.0105704 0.0218056 2.99811e-19)
(-0.0268851 0.0627424 -2.01015e-19)
(-0.0360821 0.101077 -1.40692e-19)
(-0.0388618 0.134651 -8.49176e-20)
(-0.0352641 0.16231 -2.76576e-19)
(-0.0254994 0.183429 -4.64636e-19)
(-0.00991905 0.197856 -1.51972e-19)
(0.0111188 0.205848 5.19747e-19)
(0.0373147 0.207923 -1.63575e-19)
(0.06848 0.204708 -3.54828e-19)
(0.104569 0.196804 -2.13572e-19)
(0.145696 0.184687 -6.62523e-19)
(0.192132 0.168652 -7.32462e-19)
(0.244317 0.148793 5.60971e-19)
(0.302848 0.125021 1.20481e-19)
(0.368466 0.0970824 9.81394e-20)
(0.441986 0.0646309 1.04113e-18)
(0.52403 0.0272533 1.64927e-19)
(0.614872 -0.0151361 1.04892e-18)
(0.713006 -0.0629334 -1.28485e-18)
(0.816694 -0.113724 6.09816e-19)
(0.917347 -0.169681 -5.44741e-19)
(1.01527 -0.218625 8.43062e-19)
(1.08431 -0.276104 -1.21278e-18)
(1.16113 -0.303583 2.42662e-19)
(-0.0104169 0.0200177 -7.66421e-20)
(-0.0267104 0.0578163 -1.60043e-19)
(-0.0360949 0.0933651 -1.4609e-19)
(-0.0389793 0.124609 4.96673e-20)
(-0.0352564 0.150434 -7.7482e-20)
(-0.0250319 0.170197 2.94212e-19)
(-0.00858399 0.183687 -1.04642e-19)
(0.013773 0.191074 -2.21263e-19)
(0.0417643 0.19278 -9.09165e-20)
(0.0752188 0.189349 5.55794e-21)
(0.114116 0.181322 5.9433e-19)
(0.158612 0.169142 -5.28619e-19)
(0.209059 0.153095 7.84103e-19)
(0.266002 0.13329 -2.33802e-19)
(0.330164 0.109665 -4.13816e-19)
(0.402374 0.0820088 3.45425e-19)
(0.483415 0.0500417 -3.9584e-19)
(0.57363 0.0134528 -6.77783e-19)
(0.672582 -0.0276592 -2.6817e-19)
(0.777681 -0.073467 2.53424e-19)
(0.885547 -0.121275 3.93674e-19)
(0.986721 -0.173046 7.6223e-19)
(1.07996 -0.216814 3.87261e-20)
(1.14255 -0.268585 4.96273e-19)
(1.20665 -0.289465 -1.45392e-19)
(-0.0102762 0.018399 -3.72372e-20)
(-0.0265186 0.0531986 3.49394e-19)
(-0.036049 0.0859484 3.59637e-19)
(-0.0389916 0.114749 -1.60705e-19)
(-0.0351003 0.138563 1.12566e-19)
(-0.024377 0.156765 -4.15282e-19)
(-0.00701936 0.169113 8.28217e-20)
(0.0167175 0.175711 6.74725e-20)
(0.0466051 0.176904 -1.94385e-19)
(0.0825175 0.173161 -5.34211e-20)
(0.12449 0.164966 -7.3883e-19)
(0.172757 0.152729 2.41214e-19)
(0.227772 0.136726 -3.8118e-20)
(0.290198 0.117076 -5.81531e-21)
(0.360847 0.0937438 -3.53566e-20)
(0.440541 0.0665719 -1.4228e-20)
(0.529831 0.0353621 -3.62132e-20)
(0.628493 -6.715e-05 4.70585e-19)
(0.735029 -0.0394366 -4.30528e-19)
(0.845543 -0.0826648 3.91436e-19)
(0.955003 -0.126964 -5.8328e-19)
(1.0536 -0.174027 -2.77439e-19)
(1.13929 -0.212613 6.81578e-20)
(1.19339 -0.258663 -4.24392e-19)
(1.24394 -0.273859 -1.30539e-19)
(-0.0101672 0.0169611 -3.49877e-19)
(-0.0263392 0.0489265 -4.42087e-20)
(-0.0359579 0.0788956 -4.42217e-19)
(-0.0388788 0.105174 -3.54009e-19)
(-0.0347283 0.126834 4.67113e-19)
(-0.0234067 0.143297 3.19275e-19)
(-0.00502365 0.15432 -1.40592e-19)
(0.020241 0.159965 -1.24908e-19)
(0.0522294 0.160514 -9.37498e-20)
(0.090891 0.156375 8.14458e-19)
(0.136349 0.147982 3.19559e-19)
(0.188945 0.135712 4.5365e-19)
(0.249246 0.119832 -2.55293e-20)
(0.318006 0.100472 9.63224e-20)
(0.396046 0.0776293 2.6109e-19)
(0.484009 0.0512067 -6.2304e-19)
(0.581949 0.0210973 1.00385e-18)
(0.688751 -0.0127359 1.11788e-19)
(0.801564 -0.0498672 -3.38891e-19)
(0.915143 -0.0899652 -5.13678e-19)
(1.0231 -0.13037 -2.76943e-19)
(1.116 -0.172446 6.04989e-19)
(1.19179 -0.206108 -2.34137e-20)
(1.23605 -0.246677 2.94959e-19)
(1.27322 -0.257252 3.31155e-19)
(-0.0101063 0.015709 2.66578e-19)
(-0.0261943 0.0450231 2.76858e-20)
(-0.0358234 0.0722592 -5.86984e-20)
(-0.0386041 0.0959709 6.30006e-20)
(-0.0340484 0.11537 -4.43481e-19)
(-0.0219584 0.129954 5.87622e-19)
(-0.002348 0.139502 -1.69063e-21)
(0.0246956 0.144054 4.77897e-19)
(0.0591108 0.143854 2.02873e-20)
(0.100952 0.13926 -1.66917e-19)
(0.150459 0.130662 2.63543e-19)
(0.208093 0.118411 -8.9147e-19)
(0.274521 0.102768 -5.58943e-19)
(0.35052 0.0838758 -2.83358e-19)
(0.436771 0.06177 -1.28283e-19)
(0.533501 0.0364165 1.37753e-20)
(0.639963 0.00779892 -6.44522e-19)
(0.753851 -0.0239811 2.4762e-19)
(0.870829 -0.0584144 9.69372e-19)
(0.984507 -0.0949555 2.75057e-19)
(1.08771 -0.131283 6.52046e-19)
(1.17219 -0.168356 -6.35398e-19)
(1.23647 -0.197581 -1.42709e-19)
(1.27037 -0.233079 -2.25297e-19)
(1.29515 -0.240145 -1.16529e-18)
(-0.0101059 0.0146412 -2.48341e-19)
(-0.0260967 0.0414973 1.25875e-19)
(-0.0356327 0.0660741 2.23175e-19)
(-0.0381103 0.0872096 7.71238e-19)
(-0.0329422 0.104281 2.89286e-19)
(-0.0198348 0.116886 -6.40267e-19)
(0.00130162 0.124847 -1.60842e-19)
(0.0304904 0.128208 -8.4981e-20)
(0.0677904 0.127187 -2.7802e-19)
(0.113386 0.122109 -9.17143e-20)
(0.16765 0.113333 -1.90902e-19)
(0.231152 0.10119 7.07289e-19)
(0.304604 0.0859385 8.5891e-19)
(0.388682 0.0677378 4.41527e-19)
(0.483718 0.0466594 -2.2697e-19)
(0.589242 0.0227297 -1.62623e-19)
(0.703407 -0.00399432 3.68403e-19)
(0.822536 -0.033303 -9.10168e-20)
(0.940903 -0.0646814 -1.75453e-20)
(1.05142 -0.0974269 2.08866e-19)
(1.14688 -0.129716 -2.94735e-19)
(1.22091 -0.162004 -4.9849e-19)
(1.27293 -0.187444 -3.14809e-19)
(1.29672 -0.218358 4.01626e-19)
(1.31066 -0.22301 1.18446e-18)
(-0.0101735 0.0137488 1.97989e-19)
(-0.0260472 0.0383428 6.69656e-19)
(-0.035356 0.0603568 2.66851e-19)
(-0.0373193 0.078941 -2.36555e-19)
(-0.031265 0.0936595 3.27915e-19)
(-0.0168066 0.104229 3.59925e-19)
(0.00625755 0.110538 4.02436e-19)
(0.0380779 0.112652 -2.30251e-20)
(0.0788534 0.110782 3.17123e-19)
(0.128913 0.105234 -9.78801e-19)
(0.188753 0.0963479 5.57162e-19)
(0.259014 0.0844434 -3.01436e-19)
(0.340343 0.0697782 -7.7207e-19)
(0.433136 0.0525281 -5.71541e-19)
(0.53712 0.0327935 9.47995e-19)
(0.650841 0.0106439 -3.30162e-19)
(0.77114 -0.0138226 -1.66395e-19)
(0.892971 -0.0403403 1.26186e-19)
(1.00957 -0.0684599 -6.6808e-19)
(1.11379 -0.0973872 5.30647e-19)
(1.19913 -0.125876 -8.16777e-20)
(1.26153 -0.153769 6.12433e-19)
(1.30132 -0.17617 6.75612e-19)
(1.31594 -0.202971 -2.23586e-19)
(1.32082 -0.206262 -4.28646e-19)
(-0.0103102 0.0130169 -1.02902e-19)
(-0.0260332 0.0355393 -3.80306e-19)
(-0.0349458 0.0551052 9.92406e-21)
(-0.0361315 0.0711956 -1.90529e-19)
(-0.0288482 0.0835774 -5.5857e-19)
(-0.0126186 0.0921035 -2.87649e-19)
(0.0128785 0.0967437 1.58161e-19)
(0.0479331 0.0976033 -4.92599e-19)
(0.0928944 0.0949039 3.89395e-20)
(0.148231 0.0889464 2.44899e-19)
(0.214531 0.0800625 -7.05623e-19)
(0.292412 0.0685665 -2.33379e-19)
(0.382307 0.0547172 6.17677e-19)
(0.484099 0.0386983 4.26388e-19)
(0.596644 0.0206222 -5.59356e-19)
(0.717272 0.00057135 6.11245e-19)
(0.841453 -0.0213595 2.5657e-19)
(0.962989 -0.0449095 -6.94612e-20)
(1.07465 -0.0697413 -5.419e-20)
(1.1699 -0.0950302 -5.683e-19)
(1.24356 -0.120091 5.94548e-20)
(1.294 -0.14409 -1.00462e-19)
(1.32229 -0.164216 -5.18803e-19)
(1.32908 -0.187293 -3.628e-19)
(1.3267 -0.19025 -3.18638e-19)
(-0.010511 0.0124239 -6.44797e-20)
(-0.026028 0.0330529 -8.41154e-19)
(-0.0343365 0.0502994 -5.18546e-19)
(-0.0344284 0.0639829 -6.59034e-19)
(-0.0255046 0.0740842 5.81078e-19)
(-0.00699913 0.0806045 4.71457e-20)
(0.021533 0.0836096 4.18282e-19)
(0.0605267 0.0832588 -3.82224e-19)
(0.110477 0.0797992 6.36835e-19)
(0.171962 0.0735404 2.39701e-19)
(0.24559 0.0648142 2.04897e-20)
(0.331826 0.0539324 -3.83018e-20)
(0.430684 0.0411497 -1.37439e-19)
(0.54129 0.0266423 -1.18885e-19)
(0.661387 0.0105065 1.33229e-19)
(0.786973 -0.00720358 1.89105e-19)
(0.912279 -0.0264431 -1.21953e-18)
(1.0304 -0.0470098 7.583e-20)
(1.1343 -0.0686902 -1.98075e-19)
(1.21862 -0.0906781 -1.87163e-19)
(1.27993 -0.112746 8.80662e-20)
(1.31877 -0.133407 -5.75404e-19)
(1.33676 -0.151966 2.58516e-19)
(1.33725 -0.171565 3.0138e-19)
(1.32918 -0.175252 -6.47384e-19)
(-0.0107634 0.0119434 1.50086e-19)
(-0.0259911 0.030838 6.08082e-19)
(-0.0334468 0.0459027 5.27556e-20)
(-0.0320757 0.0572917 9.56382e-19)
(-0.0210347 0.0652058 -6.05252e-19)
(0.000327901 0.0698027 5.91139e-19)
(0.0325802 0.0712547 -5.28836e-19)
(0.0762957 0.0697875 2.08121e-19)
(0.13209 0.0656865 -2.68963e-19)
(0.200594 0.0592793 3.56064e-19)
(0.282321 0.0509038 5.943e-19)
(0.377412 0.0408666 3.11271e-19)
(0.485235 0.0294059 1.25344e-19)
(0.603921 0.016665 1.38301e-19)
(0.729948 0.00268762 -1.09471e-19)
(0.858024 -0.0125455 -8.81927e-20)
(0.98147 -0.0290776 9.88685e-19)
(1.09325 -0.0467981 3.22058e-19)
(1.18717 -0.0655955 8.97538e-19)
(1.25945 -0.084716 2.39084e-20)
(1.30854 -0.104223 -5.43351e-19)
(1.33665 -0.122119 6.68064e-19)
(1.34581 -0.139664 8.05101e-19)
(1.34145 -0.155834 9.03824e-20)
(1.32891 -0.161476 6.32011e-19)
(-0.0110485 0.0115451 -4.25336e-19)
(-0.0258688 0.02884 2.35372e-19)
(-0.0321811 0.0418641 5.16405e-19)
(-0.0289282 0.0510918 -2.03075e-19)
(-0.0152349 0.0569447 -6.00851e-19)
(0.00963014 0.0597412 -4.3951e-20)
(0.0463497 0.0597673 3.23527e-20)
(0.0956143 0.0573248 5.79148e-20)
(0.158112 0.0527457 -3.71977e-19)
(0.234432 0.046383 -1.57999e-19)
(0.324847 0.03858 -5.55214e-19)
(0.428968 0.0296294 -1.451e-20)
(0.545293 0.0197315 -1.60595e-19)
(0.670771 0.00896334 -4.85039e-20)
(0.800585 -0.00272528 4.33697e-19)
(0.92838 -0.0154656 -6.40088e-19)
(1.04706 -0.0294098 2.65606e-19)
(1.15006 -0.0445428 -4.32156e-19)
(1.23255 -0.0608141 -6.43148e-19)
(1.29249 -0.0775334 1.13337e-19)
(1.33007 -0.0948732 1.1439e-18)
(1.34866 -0.110575 -5.68163e-19)
(1.35059 -0.127367 2.13606e-20)
(1.34242 -0.139995 4.40472e-19)
(1.32623 -0.149263 2.34346e-19)
(-0.0113409 0.0111963 2.00319e-19)
(-0.0255965 0.0269981 -2.8389e-19)
(-0.0304337 0.0381215 -6.00232e-19)
(-0.0248353 0.0453369 -3.18476e-19)
(-0.00790615 0.0492819 3.47097e-19)
(0.0211542 0.0504367 1.18027e-19)
(0.0631239 0.0492047 6.87055e-19)
(0.118771 0.0459694 2.78478e-19)
(0.18878 0.0411154 1.75929e-19)
(0.273574 0.035022 8.24763e-20)
(0.373008 0.028032 5.74191e-19)
(0.485946 0.0204071 2.61903e-19)
(0.609816 0.0122795 -2.19353e-19)
(0.7403 0.00362155 3.16675e-19)
(0.871409 -0.00574938 -1.85222e-19)
(0.996106 -0.0161001 2.37515e-19)
(1.10744 -0.027689 -2.34985e-19)
(1.19989 -0.0405741 -4.93334e-19)
(1.27027 -0.0547184 7.13335e-19)
(1.31824 -0.0694843 -7.43243e-19)
(1.34546 -0.0850061 1.98827e-19)
(1.35593 -0.0990454 -2.30751e-19)
(1.35225 -0.114964 -1.68616e-19)
(1.34085 -0.124204 -1.30452e-18)
(1.32123 -0.13947 1.90616e-19)
(-0.0116105 0.0108647 4.10506e-20)
(-0.0251001 0.0252486 2.03073e-19)
(-0.0280921 0.0346053 6.73081e-19)
(-0.0196461 0.039968 -1.58612e-19)
(0.00113866 0.0421808 -6.89283e-20)
(0.0351153 0.0418828 1.2806e-19)
(0.0831251 0.0395954 1.14054e-19)
(0.145953 0.0357863 -4.47231e-19)
(0.224178 0.0308935 -2.08386e-19)
(0.317903 0.0253182 -6.44142e-19)
(0.426368 0.0193893 -4.88603e-19)
(0.54749 0.0133111 -3.51057e-19)
(0.677489 0.00711181 3.17345e-19)
(0.810812 0.000618974 -4.64911e-19)
(0.940574 -0.00650907 -2.25552e-19)
(1.05956 -0.0146766 -9.7969e-20)
(1.16152 -0.0242228 -7.70529e-20)
(1.24236 -0.0352386 1.47211e-18)
(1.30062 -0.0476572 8.13491e-20)
(1.33749 -0.060867 -1.27076e-19)
(1.35572 -0.0748897 -6.91276e-19)
(1.35956 -0.0876913 2.15544e-19)
(1.3518 -0.102375 1.94697e-20)
(1.33777 -0.109467 7.35336e-19)
(1.31455 -0.132295 7.38581e-20)
(-0.0118245 0.0105194 3.2238e-19)
(-0.0242999 0.0235282 -3.09874e-19)
(-0.0250404 0.0312435 -4.69735e-19)
(-0.0132144 0.0349194 4.70979e-19)
(0.012069 0.0355929 -1.04624e-19)
(0.0516903 0.0340562 -9.04292e-20)
(0.106507 0.0309459 7.93732e-20)
(0.177239 0.0268125 -1.12994e-19)
(0.264232 0.0221434 2.83525e-19)
(0.367096 0.0173505 1.83862e-19)
(0.484254 0.0127264 4.80132e-19)
(0.612511 0.00838426 -1.34056e-20)
(0.746834 0.00420737 3.99535e-19)
(0.880604 -0.000153791 -2.5445e-20)
(1.00645 -0.00520875 4.32543e-19)
(1.1175 -0.0114775 1.26993e-19)
(1.20868 -0.0193374 -8.11888e-19)
(1.27752 -0.0288658 -3.99571e-19)
(1.32422 -0.0399308 -1.03462e-19)
(1.35119 -0.0519195 2.50598e-19)
(1.36186 -0.0647317 -1.11814e-19)
(1.36048 -0.0765639 -3.96567e-19)
(1.3498 -0.0898875 5.68501e-20)
(1.33396 -0.0968523 -3.41873e-19)
(1.31261 -0.114236 -1.59846e-19)
(-0.0119475 0.0101318 1.97275e-19)
(-0.0231131 0.0217783 2.10422e-19)
(-0.0211632 0.0279669 3.85196e-19)
(-0.00540192 0.0301243 -2.80448e-19)
(0.0250327 0.0294646 2.06154e-20)
(0.0710144 0.026924 5.59781e-19)
(0.133354 0.0232487 -1.59948e-19)
(0.212603 0.0190663 -5.34956e-19)
(0.308724 0.0149035 -3.17741e-19)
(0.42065 0.0111636 4.25096e-19)
(0.545805 0.00807172 -8.90533e-19)
(0.679771 0.00560907 3.05436e-21)
(0.816334 0.0034755 -7.84165e-20)
(0.948107 0.00112574 5.73311e-19)
(1.06771 -0.0021037 -3.12551e-19)
(1.16912 -0.00680643 4.28871e-19)
(1.24876 -0.0133471 4.34696e-19)
(1.30581 -0.0217456 -7.56233e-19)
(1.3419 -0.0317815 -3.18307e-19)
(1.3603 -0.0428234 -2.52887e-19)
(1.3648 -0.0546647 3.82293e-19)
(1.35945 -0.065677 5.80283e-19)
(1.3467 -0.077965 2.56324e-19)
(1.33021 -0.0842506 -2.22892e-19)
(1.30929 -0.10075 -3.78369e-19)
(-0.0119434 0.00967799 -4.65629e-20)
(-0.0214567 0.0199486 1.96911e-19)
(-0.016348 0.0247133 -3.91105e-19)
(0.00391909 0.0255212 -6.00025e-19)
(0.0401546 0.0237449 -8.87932e-19)
(0.0931807 0.0204534 1.51561e-19)
(0.163682 0.016493 -1.78013e-19)
(0.251919 0.0125579 2.60888e-19)
(0.357308 0.00919691 9.67442e-20)
(0.477917 0.0067768 1.88119e-19)
(0.610023 0.00541516 2.09122e-19)
(0.747967 0.00491737 -1.16305e-19)
(0.884538 0.00476998 -1.69311e-19)
(1.01199 0.00423359 -3.81252e-19)
(1.12342 0.00252701 1.1709e-19)
(1.21407 -0.000961861 -4.52718e-19)
(1.28198 -0.00653419 1.64697e-19)
(1.32789 -0.0141179 1.14239e-19)
(1.35453 -0.0233936 -4.35534e-19)
(1.36573 -0.0337064 -4.55569e-19)
(1.36534 -0.0447605 -2.38261e-19)
(1.35704 -0.0551091 1.59222e-20)
(1.34299 -0.0664675 7.01669e-20)
(1.32616 -0.0725565 -2.16281e-19)
(1.30611 -0.0875778 1.59469e-19)
(-0.0117767 0.00913978 2.97369e-21)
(-0.0192488 0.0179992 -5.4139e-19)
(-0.0104872 0.0214327 6.90503e-19)
(0.0148645 0.0210602 7.3812e-19)
(0.0575364 0.0183934 4.40182e-19)
(0.118243 0.0146199 -1.53309e-20)
(0.197446 0.0106735 -1.60331e-19)
(0.294977 0.00729845 -2.21071e-19)
(0.40953 0.00504028 4.02408e-19)
(0.538137 0.00419111 -9.78999e-19)
(0.675838 0.00471435 1.00106e-19)
(0.815811 0.00619874 9.13614e-19)
(0.95015 0.00790349 1.28647e-19)
(1.0712 0.00891988 -2.60455e-19)
(1.17302 0.00840312 4.68558e-19)
(1.25234 0.00578211 5.20081e-19)
(1.30882 0.000862533 1.27627e-19)
(1.34453 -0.00617038 9.4509e-19)